
*************** JDFTx 1.7.0  ***************

Start date and time: Wed Sep 25 09:47:00 2024
Executable jdftx_gpu with command-line: -i /home/akim2/JDFTx/Na2S4@TiO2-glyme/Na2S4@TiO2-glyme.in -o /home/akim2/JDFTx/Na2S4@TiO2-glyme/Na2S4@TiO2-glyme.out
Running on hosts (process indices):  exp-1-57 (0)
Divided in process groups (process indices):  0 (0)
gpuInit: Found compatible cuda device 0 'Tesla V100-SXM2-32GB'
gpuInit: Selected device 0
Resource initialization completed at t[s]:      0.39
Run totals: 1 processes, 1 threads, 1 GPUs


Input parsed successfully to the following command list (including defaults):

basis kpoint-dependent
coords-type Cartesian
core-overlap-check vector
coulomb-interaction Slab 001
coulomb-truncation-embed 0 0 8
davidson-band-ratio 1.1
dump End State
dump Ionic State
dump-interval Ionic 5
dump-name Na2S4@TiO2-glyme.$VAR
elec-cutoff 20 100
elec-eigen-algo Davidson
elec-ex-corr gga-PBE
elec-smearing Fermi 0.01
electronic-minimize  \
	dirUpdateScheme      FletcherReeves \
	linminMethod         DirUpdateRecommended \
	nIterations          100 \
	history              15 \
	knormThreshold       0 \
	energyDiffThreshold  1e-08 \
	nEnergyDiff          2 \
	alphaTstart          1 \
	alphaTmin            1e-10 \
	updateTestStepSize   yes \
	alphaTreduceFactor   0.1 \
	alphaTincreaseFactor 3 \
	nAlphaAdjustMax      3 \
	wolfeEnergy          0.0001 \
	wolfeGradient        0.9 \
	fdTest               no
exchange-regularization WignerSeitzTruncated
fluid LinearPCM 298.000000 1.013250
fluid-ex-corr lda-TF lda-PZ
fluid-gummel-loop 10 1.000000e-05
fluid-minimize  \
	dirUpdateScheme      PolakRibiere \
	linminMethod         DirUpdateRecommended \
	nIterations          400 \
	history              15 \
	knormThreshold       1e-11 \
	energyDiffThreshold  0 \
	nEnergyDiff          2 \
	alphaTstart          1 \
	alphaTmin            1e-10 \
	updateTestStepSize   yes \
	alphaTreduceFactor   0.1 \
	alphaTincreaseFactor 3 \
	nAlphaAdjustMax      6 \
	wolfeEnergy          0.0001 \
	wolfeGradient        0.9 \
	fdTest               no
fluid-solvent Glyme 9.62137 ScalarEOS \
	epsBulk 7.2 \
	pMol 0 \
	epsInf 1.9 \
	Pvap 0 \
	sigmaBulk 0 \
	Rvdw 0 \
	Res 0 \
	tauNuc 343133
forces-output-coords Positions
ion Ti   0.000000174975000  -0.000000174975000   2.000000000000000 0
ion Ti   4.340445422775000   4.340445072825000   4.795024053800001 0
ion Ti   0.000000174975000   8.680909217924999   2.000000000000000 0
ion Ti   4.340445422775000  13.021354465725000   4.795024053800001 0
ion Ti   0.000000174975000  17.361818610825001   2.000000000000000 0
ion Ti   4.340445422775000  21.702263858624999   4.795024053800001 0
ion Ti   8.680909567874998  -0.000000174975000   2.000000000000000 0
ion Ti  13.021354815675002   4.340445072825000   4.795024053800001 0
ion Ti   8.680909567874998   8.680909217924999   2.000000000000000 0
ion Ti  13.021354815675002  13.021354465725000   4.795024053800001 0
ion Ti   8.680909567874998  17.361818610825001   2.000000000000000 0
ion Ti  13.021364264325003  21.702263858624999   4.795024053800001 0
ion Ti  17.361818960775000  -0.000000174975000   2.000000000000000 0
ion Ti  21.702264208574999   4.340445072825000   4.795024053800001 0
ion Ti  17.361818960775000   8.680909217924999   2.000000000000000 0
ion Ti  21.702264208574999  13.021363914375000   4.795024053800001 0
ion Ti  17.361818960775000  17.361818610825001   2.000000000000000 0
ion Ti  21.702264208574999  21.702263858624999   4.795024053800001 0
ion O   2.650289808075000   2.650289458125000   2.000000000000000 0
ion O   6.030619934775000   6.030619584825001   2.000000000000000 0
ion O   1.690174686975000   6.990734705924999   4.795024053800001 0
ion O   6.990735055874999   1.690174337025000   4.795024053800001 0
ion O   2.650289808075000  11.331198851025000   2.000000000000000 0
ion O   6.030619934775000  14.711528977725004   2.000000000000000 0
ion O   1.690174686975000  15.671644098825000   4.795024053800001 0
ion O   6.990735055874999  10.371083729925001   4.795024053800001 0
ion O   2.650289808075000  20.012108243924999   2.000000000000000 0
ion O   6.030619934775000  23.392438370625001   2.000000000000000 0
ion O   1.690174686975000  24.352553491725004   4.795024053800001 0
ion O   6.990735055874999  19.051993122824996   4.795024053800001 0
ion O  11.331199200975000   2.650289458125000   2.000000000000000 0
ion O  14.711529327675001   6.030619584825001   2.000000000000000 0
ion O  10.371084079875001   6.990734705924999   4.795024053800001 0
ion O  15.671644448774998   1.690174337025000   4.795024053800001 0
ion O  11.331199200975000  11.331198851025000   2.000000000000000 0
ion O  14.711529327675001  14.711528977725004   2.000000000000000 0
ion O  10.371084079875001  15.671644098825000   4.795024053800001 0
ion O  15.671644448774998  10.371083729925001   4.795024053800001 0
ion O  11.331199200975000  20.012108243924999   2.000000000000000 0
ion O  14.711529327675001  23.392438370625001   2.000000000000000 0
ion O  10.371084079875001  24.352553491725004   4.795024053800001 0
ion O  15.671644448774998  19.051993122824996   4.795024053800001 0
ion O  20.012108593874995   2.650289458125000   2.000000000000000 0
ion O  23.392438720575004   6.030619584825001   2.000000000000000 0
ion O  19.051993472774999   6.990734705924999   4.795024053800001 0
ion O  24.352553841675000   1.690174337025000   4.795024053800001 0
ion O  20.012108593874995  11.331198851025000   2.000000000000000 0
ion O  23.392438720575004  14.711528977725004   2.000000000000000 0
ion O  19.051993472774999  15.671644098825000   4.795024053800001 0
ion O  24.352553841675000  10.371083729925001   4.795024053800001 0
ion O  20.012108593874995  20.012108243924999   2.000000000000000 0
ion O  23.392438720575004  23.392438370625001   2.000000000000000 0
ion O  19.051993472774999  24.352553491725004   4.795024053800001 0
ion O  24.352553841675000  19.051993122824996   4.795024053800001 0
ion S  22.730643224003739  12.987306037576749   9.550470690664993 1
ion S  20.876160957448388  15.538214670719407  11.937946501741772 1
ion S  22.537805696696079  19.185780181604603  11.939203228599107 1
ion S  20.681081326641170  21.739272709662604   9.551593110598700 1
ion Na  17.632735434339001  17.621577401470603   8.235569586366989 1
ion Na  25.779354121167781  17.109578339037519   8.236791612539783 1
ion-species GBRV/$ID_pbe.uspp
ion-width Ecut
ionic-minimize  \
	dirUpdateScheme      FletcherReeves \
	linminMethod         DirUpdateRecommended \
	nIterations          200 \
	history              15 \
	knormThreshold       0.0001 \
	energyDiffThreshold  1e-06 \
	nEnergyDiff          2 \
	alphaTstart          1 \
	alphaTmin            1e-10 \
	updateTestStepSize   yes \
	alphaTreduceFactor   0.1 \
	alphaTincreaseFactor 3 \
	nAlphaAdjustMax      3 \
	wolfeEnergy          0.0001 \
	wolfeGradient        0.9 \
	fdTest               no
kpoint   0.000000000000   0.000000000000   0.000000000000  1.00000000000000
kpoint-folding 1 1 1 
latt-move-scale 1 1 1
latt-scale 1 1 1 
lattice Tetragonal 26.04 37.7946
lattice-minimize  \
	dirUpdateScheme      L-BFGS \
	linminMethod         DirUpdateRecommended \
	nIterations          0 \
	history              15 \
	knormThreshold       0 \
	energyDiffThreshold  1e-06 \
	nEnergyDiff          2 \
	alphaTstart          1 \
	alphaTmin            1e-10 \
	updateTestStepSize   yes \
	alphaTreduceFactor   0.1 \
	alphaTincreaseFactor 3 \
	nAlphaAdjustMax      3 \
	wolfeEnergy          0.0001 \
	wolfeGradient        0.9 \
	fdTest               no
lcao-params -1 1e-06 0.01
pcm-variant GLSSA13
spintype no-spin
subspace-rotation-factor 1 yes
symmetries automatic
symmetry-threshold 0.0001



---------- Setting up symmetries ----------

Found 16 point-group symmetries of the bravais lattice
Found 1 space-group symmetries with basis
Applied RMS atom displacement 0 bohrs to make symmetries exact.

---------- Initializing the Grid ----------
R = 
[        26.04            0            0  ]
[            0        26.04            0  ]
[            0            0      37.7946  ]
unit cell volume = 25627.8
G =
[    0.24129          0          0  ]
[          0    0.24129          0  ]
[          0          0   0.166246  ]
Minimum fftbox size, Smin = [  120  120  172  ]
Chosen fftbox size, S = [  120  120  180  ]

---------- Initializing tighter grid for wavefunction operations ----------
R = 
[        26.04            0            0  ]
[            0        26.04            0  ]
[            0            0      37.7946  ]
unit cell volume = 25627.8
G =
[    0.24129          0          0  ]
[          0    0.24129          0  ]
[          0          0   0.166246  ]
Minimum fftbox size, Smin = [  108  108  156  ]
Chosen fftbox size, S = [  108  108  160  ]

---------- Exchange Correlation functional ----------
Initalized PBE GGA exchange.
Initalized PBE GGA correlation.

---------- Setting up pseudopotentials ----------
Width of ionic core gaussian charges (only for fluid interactions / plotting) set to 0.397384

Reading pseudopotential file '/home/akim2/jdftx_install/build/pseudopotentials/GBRV/ti_pbe.uspp':
  Title: Ti.  Created by USPP 7.3.6 on 31-3-15
  Reference state energy: -59.020943.  12 valence electrons in orbitals:
    |300>  occupation: 2  eigenvalue: -2.777623
    |310>  occupation: 6  eigenvalue: -1.894596
    |400>  occupation: 2  eigenvalue: -0.438610
    |320>  occupation: 1  eigenvalue: -0.583119
  lMax: 2  lLocal: 3  QijEcut: 6
  6 projectors sampled on a log grid with 597 points:
    l: 0  eig: -2.777624  rCut: 1.8
    l: 0  eig: -0.438611  rCut: 1.8
    l: 1  eig: -1.894596  rCut: 1.8
    l: 1  eig: 0.500000  rCut: 1.8
    l: 2  eig: -0.583118  rCut: 1.8
    l: 2  eig: 0.150000  rCut: 1.8
  Partial core density with radius 0.8
  Transforming core density to a uniform radial grid of dG=0.02 with 1273 points.
  Transforming local potential to a uniform radial grid of dG=0.02 with 1273 points.
  Transforming nonlocal projectors to a uniform radial grid of dG=0.02 with 432 points.
  Transforming density augmentations to a uniform radial grid of dG=0.02 with 1273 points.
  Transforming atomic orbitals to a uniform radial grid of dG=0.02 with 432 points.
  Core radius for overlap checks: 1.80 bohrs.

Reading pseudopotential file '/home/akim2/jdftx_install/build/pseudopotentials/GBRV/o_pbe.uspp':
  Title: O.  Created by USPP 7.3.6 on 3-2-2014
  Reference state energy: -15.894388.  6 valence electrons in orbitals:
    |200>  occupation: 2  eigenvalue: -0.878823
    |210>  occupation: 4  eigenvalue: -0.332131
  lMax: 2  lLocal: 2  QijEcut: 6
  5 projectors sampled on a log grid with 511 points:
    l: 0  eig: -0.878823  rCut: 1.25
    l: 0  eig: 0.000000  rCut: 1.25
    l: 1  eig: -0.332132  rCut: 1.25
    l: 1  eig: 0.000000  rCut: 1.25
    l: 2  eig: 1.000000  rCut: 1.25
  Partial core density with radius 0.7
  Transforming core density to a uniform radial grid of dG=0.02 with 1273 points.
  Transforming local potential to a uniform radial grid of dG=0.02 with 1273 points.
  Transforming nonlocal projectors to a uniform radial grid of dG=0.02 with 432 points.
  Transforming density augmentations to a uniform radial grid of dG=0.02 with 1273 points.
  Transforming atomic orbitals to a uniform radial grid of dG=0.02 with 432 points.
  Core radius for overlap checks: 1.25 bohrs.

Reading pseudopotential file '/home/akim2/jdftx_install/build/pseudopotentials/GBRV/s_pbe.uspp':
  Title: S.  Created by USPP 7.3.6 on 1-4-15
  Reference state energy: -11.898476.  6 valence electrons in orbitals:
    |300>  occupation: 2  eigenvalue: -0.634167
    |310>  occupation: 4  eigenvalue: -0.257568
  lMax: 2  lLocal: 3  QijEcut: 6
  6 projectors sampled on a log grid with 635 points:
    l: 0  eig: -0.634161  rCut: 1.5
    l: 0  eig: 1.500000  rCut: 1.5
    l: 1  eig: -0.257567  rCut: 1.5
    l: 1  eig: 1.500000  rCut: 1.5
    l: 2  eig: -1.000000  rCut: 1.5
    l: 2  eig: 1.500000  rCut: 1.5
  Partial core density with radius 1.15
  Transforming core density to a uniform radial grid of dG=0.02 with 1273 points.
  Transforming local potential to a uniform radial grid of dG=0.02 with 1273 points.
  Transforming nonlocal projectors to a uniform radial grid of dG=0.02 with 432 points.
  Transforming density augmentations to a uniform radial grid of dG=0.02 with 1273 points.
  Transforming atomic orbitals to a uniform radial grid of dG=0.02 with 432 points.
  Core radius for overlap checks: 1.50 bohrs.

Reading pseudopotential file '/home/akim2/jdftx_install/build/pseudopotentials/GBRV/na_pbe.uspp':
  Title: Na.  Created by USPP 7.3.6 on 23-9-15
  Reference state energy: -47.625620.  9 valence electrons in orbitals:
    |200>  occupation: 2  eigenvalue: -2.085638
    |210>  occupation: 6  eigenvalue: -1.053708
    |300>  occupation: 1  eigenvalue: -0.100838
  lMax: 2  lLocal: 0  QijEcut: 6
  5 projectors sampled on a log grid with 657 points:
    l: 0  eig: -2.085640  rCut: 1.37
    l: 0  eig: -0.100839  rCut: 1.37
    l: 1  eig: -1.053708  rCut: 1.47
    l: 1  eig: 0.500000  rCut: 1.47
    l: 2  eig: 0.750000  rCut: 2
  Transforming local potential to a uniform radial grid of dG=0.02 with 1273 points.
  Transforming nonlocal projectors to a uniform radial grid of dG=0.02 with 432 points.
  Transforming density augmentations to a uniform radial grid of dG=0.02 with 1273 points.
  Transforming atomic orbitals to a uniform radial grid of dG=0.02 with 432 points.
  Core radius for overlap checks: 2.00 bohrs.

Initialized 4 species with 60 total atoms.

Folded 1 k-points by 1x1x1 to 1 k-points.

---------- Setting up k-points, bands, fillings ----------
No reducable k-points. 
Computing the number of bands and number of electrons
Calculating initial fillings.
nElectrons: 474.000000   nBands: 350   nStates: 1

----- Setting up reduced wavefunction bases (one per k-point) -----
average nbasis = 109517.000 , ideal nbasis = 109484.012

---------- Setting up coulomb interaction ----------
Fluid mode embedding: using embedded box, but periodic Coulomb kernel.
(Fluid response is responsible for (approximate) separation between periodic images.)
Setting up double-sized grid for truncated Coulomb potentials:
R = 
[        26.04            0            0  ]
[            0        26.04            0  ]
[            0            0      75.5892  ]
unit cell volume = 51255.6
G =
[    0.24129          0          0  ]
[          0    0.24129          0  ]
[          0          0  0.0831228  ]
Chosen fftbox size, S = [  120  120  360  ]
Integer grid location selected as the embedding center:
   Grid: [  0  0  38  ]
   Lattice: [  0  0  0.21167  ]
   Cartesian: [  0  0  8  ]
Constructing Wigner-Seitz cell: 6 faces (6 quadrilaterals, 0 hexagons)
Range-separation parameter for embedded mesh potentials due to point charges: 0.587679 bohrs.

---------- Setting up ewald sum ----------
Optimum gaussian width for ewald sums = 7.489717 bohr.
Real space sum over 405 unit cells with max indices [  4  4  2  ]
Reciprocal space sum over 7875 terms with max indices [  7  7  17  ]

---------- Allocating electronic variables ----------
Initializing wave functions:  linear combination of atomic orbitals
Ti pseudo-atom occupations:   s ( 2 0 )  p ( 6 )  d ( 4 )
O pseudo-atom occupations:   s ( 2 )  p ( 4 )
S pseudo-atom occupations:   s ( 2 )  p ( 4 )
Na pseudo-atom occupations:   s ( 2 1 )  p ( 6 )
	FillingsUpdate:  mu: +0.147737338  nElectrons: 474.000000
LCAOMinimize: Iter:   0  F: -1737.6851611997474265  |grad|_K:  1.579e-02  alpha:  1.000e+00
	FillingsUpdate:  mu: +0.141874882  nElectrons: 474.000000
LCAOMinimize: Iter:   1  F: -1738.9947270216782726  |grad|_K:  1.564e-02  alpha:  4.199e-02  linmin: -1.956e-01  cgtest:  9.551e-01  t[s]:      7.77
LCAOMinimize: 	Wrong curvature in test step, increasing alphaT to 1.259583e-01.
	FillingsUpdate:  mu: +0.134199457  nElectrons: 474.000000
LCAOMinimize: Iter:   2  F: -1740.3499606294474233  |grad|_K:  1.571e-02  alpha: -6.543e-01  linmin: -1.935e-01  cgtest:  9.387e-01  t[s]:      9.50
	FillingsUpdate:  mu: +0.124563617  nElectrons: 474.000000
LCAOMinimize: Iter:   3  F: -1741.8370788212334901  |grad|_K:  1.594e-02  alpha:  4.354e-02  linmin: -1.924e-01  cgtest:  9.214e-01  t[s]:     11.27
LCAOMinimize: 	Wrong curvature in test step, increasing alphaT to 1.306280e-01.
	FillingsUpdate:  mu: +0.118161184  nElectrons: 474.000000
LCAOMinimize: Iter:   4  F: -1743.4412340646986195  |grad|_K:  1.629e-02  alpha: -3.600e-01  linmin: -1.895e-01  cgtest:  9.076e-01  t[s]:     12.99
	FillingsUpdate:  mu: +0.109912279  nElectrons: 474.000000
LCAOMinimize: Iter:   5  F: -1745.3984470420914477  |grad|_K:  1.659e-02  alpha:  4.898e-02  linmin: -1.903e-01  cgtest:  8.866e-01  t[s]:     14.76
LCAOMinimize: 	Wrong curvature in test step, increasing alphaT to 1.469445e-01.
	FillingsUpdate:  mu: +0.097816279  nElectrons: 474.000000
LCAOMinimize: Iter:   6  F: -1747.4729180775975692  |grad|_K:  1.679e-02  alpha: -3.581e-01  linmin: -2.036e-01  cgtest:  8.787e-01  t[s]:     16.46
	FillingsUpdate:  mu: +0.078606654  nElectrons: 474.000000
LCAOMinimize: Iter:   7  F: -1749.8961568518388958  |grad|_K:  1.716e-02  alpha:  5.473e-02  linmin: -2.142e-01  cgtest:  8.590e-01  t[s]:     18.31
LCAOMinimize: 	Wrong curvature in test step, increasing alphaT to 1.641888e-01.
	FillingsUpdate:  mu: +0.052351201  nElectrons: 474.000000
LCAOMinimize: Iter:   8  F: -1752.5446166474880556  |grad|_K:  1.748e-02  alpha: -2.928e-01  linmin: -2.257e-01  cgtest:  8.495e-01  t[s]:     20.07
	FillingsUpdate:  mu: +0.021536669  nElectrons: 474.000000
LCAOMinimize: Iter:   9  F: -1755.7529591716449886  |grad|_K:  1.734e-02  alpha:  6.238e-02  linmin: -2.459e-01  cgtest:  8.217e-01  t[s]:     21.90
LCAOMinimize: 	Wrong curvature in test step, increasing alphaT to 1.871271e-01.
	FillingsUpdate:  mu: -0.010189102  nElectrons: 474.000000
LCAOMinimize: Iter:  10  F: -1758.8615413737115887  |grad|_K:  1.616e-02  alpha: -4.500e-01  linmin: -2.681e-01  cgtest:  8.228e-01  t[s]:     23.63
	FillingsUpdate:  mu: -0.033521182  nElectrons: 474.000000
LCAOMinimize: Iter:  11  F: -1760.9554030037875236  |grad|_K:  1.422e-02  alpha:  5.507e-02  linmin: -2.832e-01  cgtest:  8.666e-01  t[s]:     25.46
LCAOMinimize: 	Predicted alpha/alphaT>3.000000, increasing alphaT to 1.652186e-01.
LCAOMinimize: 	Step increased F by 3.214056e+01, reducing alpha to 3.770775e-02.
	FillingsUpdate:  mu: -0.044306913  nElectrons: 474.000000
LCAOMinimize: Iter:  12  F: -1761.8984405696528484  |grad|_K:  1.278e-02  alpha:  3.771e-02  linmin: -2.891e-01  cgtest:  9.298e-01  t[s]:     29.08
LCAOMinimize: Encountered beta<0, resetting CG.
LCAOMinimize: 	Predicted alpha/alphaT>3.000000, increasing alphaT to 1.131233e-01.
LCAOMinimize: 	Predicted alpha/alphaT>3.000000, increasing alphaT to 3.393698e-01.
	FillingsUpdate:  mu: -0.057494091  nElectrons: 474.000000
LCAOMinimize: Iter:  13  F: -1763.1118921066724852  |grad|_K:  9.877e-03  alpha:  6.388e-02  linmin: -3.038e-01  cgtest:  8.894e-01  t[s]:     31.88
LCAOMinimize: Encountered beta<0, resetting CG.
LCAOMinimize: 	Predicted alpha/alphaT>3.000000, increasing alphaT to 1.916513e-01.
	FillingsUpdate:  mu: -0.033013553  nElectrons: 474.000000
LCAOMinimize: Iter:  14  F: -1764.2505209999305862  |grad|_K:  3.479e-03  alpha:  1.735e-01  linmin:  2.368e-01  cgtest: -4.959e-01  t[s]:     34.16
	FillingsUpdate:  mu: -0.031515746  nElectrons: 474.000000
LCAOMinimize: Iter:  15  F: -1764.2570040786929439  |grad|_K:  3.329e-03  alpha:  3.612e-02  linmin: -5.038e-03  cgtest:  9.777e-01  t[s]:     35.98
LCAOMinimize: Encountered beta<0, resetting CG.
	FillingsUpdate:  mu: -0.029023123  nElectrons: 474.000000
LCAOMinimize: Iter:  16  F: -1764.3288460581845811  |grad|_K:  8.784e-04  alpha:  9.790e-02  linmin: -3.447e-01  cgtest:  4.818e-01  t[s]:     37.78
LCAOMinimize: Encountered beta<0, resetting CG.
LCAOMinimize: 	Predicted alpha/alphaT>3.000000, increasing alphaT to 2.936932e-01.
	FillingsUpdate:  mu: -0.024429033  nElectrons: 474.000000
LCAOMinimize: Iter:  17  F: -1764.3440379977171233  |grad|_K:  7.750e-04  alpha:  3.198e-01  linmin:  1.388e-03  cgtest: -9.668e-04  t[s]:     41.66
	FillingsUpdate:  mu: -0.020098680  nElectrons: 474.000000
LCAOMinimize: Iter:  18  F: -1764.3521516571927350  |grad|_K:  3.289e-04  alpha:  2.155e-01  linmin: -2.499e-04  cgtest:  8.049e-03  t[s]:     43.46
	FillingsUpdate:  mu: -0.018536067  nElectrons: 474.000000
LCAOMinimize: Iter:  19  F: -1764.3535858503187228  |grad|_K:  2.478e-04  alpha:  2.151e-01  linmin:  5.759e-03  cgtest:  8.840e-03  t[s]:     45.26
	FillingsUpdate:  mu: -0.018189263  nElectrons: 474.000000
LCAOMinimize: Iter:  20  F: -1764.3543296701989220  |grad|_K:  8.603e-05  alpha:  1.995e-01  linmin:  3.355e-04  cgtest:  3.902e-02  t[s]:     47.06
	FillingsUpdate:  mu: -0.018315167  nElectrons: 474.000000
LCAOMinimize: Iter:  21  F: -1764.3544119722121195  |grad|_K:  4.251e-05  alpha:  1.805e-01  linmin:  6.014e-04  cgtest: -4.042e-03  t[s]:     48.89
	FillingsUpdate:  mu: -0.018310944  nElectrons: 474.000000
LCAOMinimize: Iter:  22  F: -1764.3544383892613041  |grad|_K:  2.975e-05  alpha:  2.377e-01  linmin:  5.952e-04  cgtest:  2.196e-03  t[s]:     50.72
	FillingsUpdate:  mu: -0.018355564  nElectrons: 474.000000
LCAOMinimize: Iter:  23  F: -1764.3544525156612508  |grad|_K:  1.216e-05  alpha:  2.596e-01  linmin:  5.450e-05  cgtest:  4.093e-03  t[s]:     52.56
	FillingsUpdate:  mu: -0.018348388  nElectrons: 474.000000
LCAOMinimize: Iter:  24  F: -1764.3544538183014083  |grad|_K:  3.893e-06  alpha:  1.430e-01  linmin: -1.830e-04  cgtest:  6.044e-04  t[s]:     54.36
	FillingsUpdate:  mu: -0.018351287  nElectrons: 474.000000
LCAOMinimize: Iter:  25  F: -1764.3544540963150666  |grad|_K:  3.612e-06  alpha:  2.977e-01  linmin:  6.611e-05  cgtest: -7.597e-04  t[s]:     56.20
	FillingsUpdate:  mu: -0.018353528  nElectrons: 474.000000
LCAOMinimize: Iter:  26  F: -1764.3544542904510308  |grad|_K:  1.703e-06  alpha:  2.416e-01  linmin:  5.545e-06  cgtest:  1.575e-03  t[s]:     57.99
LCAOMinimize: Converged (|Delta F|<1.000000e-06 for 2 iters).
----- createFluidSolver() ----- (Fluid-side solver setup)
   Initializing fluid molecule 'Glyme'
     Net charge: 0   dipole magnitude: 0
     Initializing spherical shell mfKernel with radius 0 Bohr
     deltaS corrections:

Correction to mu due to finite nuclear width = -0.00917564
   Cavity determined by nc: 8.36e-05 and sigma: 0.6
   Effective cavity tension: -8.03e-06 Eh/bohr^2 to account for cavitation and dispersion.


---- Citations for features of the code used in this run ----

   Software package:
      R. Sundararaman, K. Letchworth-Weaver, K.A. Schwarz, D. Gunceler, Y. Ozhabes and T.A. Arias, 'JDFTx: software for joint density-functional theory', SoftwareX 6, 278 (2017)

   gga-PBE exchange-correlation functional:
      J.P. Perdew, K. Burke and M. Ernzerhof, Phys. Rev. Lett. 77, 3865 (1996)

   Pseudopotentials:
      KF Garrity, JW Bennett, KM Rabe and D Vanderbilt, Comput. Mater. Sci. 81, 446 (2014)

   Truncated Coulomb potentials:
      R. Sundararaman and T.A. Arias, Phys. Rev. B 87, 165122 (2013)

   Linear/nonlinear dielectric/ionic fluid model with effective cavity tension:
      D. Gunceler, K. Letchworth-Weaver, R. Sundararaman, K.A. Schwarz and T.A. Arias, Modelling Simul. Mater. Sci. Eng. 21, 074005 (2013)

   Total energy minimization with Auxiliary Hamiltonian:
      C. Freysoldt, S. Boeck, and J. Neugebauer, Phys. Rev. B 79, 241103(R) (2009)

This list may not be complete. Please suggest additional citations or
report any other bugs at https://github.com/shankar1729/jdftx/issues

Initialization completed successfully at t[s]:     58.23

Fluid solver invoked on fresh (random / LCAO) wavefunctions
Running a vacuum solve first:

-------- Initial electronic minimization -----------
	FillingsUpdate:  mu: -0.018353528  nElectrons: 474.000000
ElecMinimize: Iter:   0  F: -1764.354454290453987  |grad|_K:  3.469e-04  alpha:  1.000e+00
	FillingsUpdate:  mu: -0.087127639  nElectrons: 474.000000
	SubspaceRotationAdjust: set factor to 1
ElecMinimize: Iter:   1  F: -1766.076467309306736  |grad|_K:  1.731e-04  alpha:  3.739e-01  linmin:  4.802e-05  t[s]:     62.56
	FillingsUpdate:  mu: -0.081192120  nElectrons: 474.000000
	SubspaceRotationAdjust: set factor to 0.838
ElecMinimize: Iter:   2  F: -1766.676330206335706  |grad|_K:  8.854e-05  alpha:  5.092e-01  linmin: -1.322e-03  t[s]:     65.09
	FillingsUpdate:  mu: -0.086653772  nElectrons: 474.000000
	SubspaceRotationAdjust: set factor to 0.621
ElecMinimize: Iter:   3  F: -1766.780369369987966  |grad|_K:  8.437e-05  alpha:  3.144e-01  linmin: -1.101e-04  t[s]:     67.65
	FillingsUpdate:  mu: -0.096465867  nElectrons: 474.000000
	SubspaceRotationAdjust: set factor to 0.523
ElecMinimize: Iter:   4  F: -1766.860845369746585  |grad|_K:  4.703e-05  alpha:  2.903e-01  linmin:  1.112e-05  t[s]:     70.15
	FillingsUpdate:  mu: -0.100658594  nElectrons: 474.000000
	SubspaceRotationAdjust: set factor to 0.463
ElecMinimize: Iter:   5  F: -1766.890711245492184  |grad|_K:  3.448e-05  alpha:  3.514e-01  linmin: -3.270e-05  t[s]:     72.67
	FillingsUpdate:  mu: -0.099625105  nElectrons: 474.000000
	SubspaceRotationAdjust: set factor to 0.477
ElecMinimize: Iter:   6  F: -1766.907868798113896  |grad|_K:  2.008e-05  alpha:  3.740e-01  linmin:  4.131e-05  t[s]:     75.19
	FillingsUpdate:  mu: -0.099247682  nElectrons: 474.000000
	SubspaceRotationAdjust: set factor to 0.449
ElecMinimize: Iter:   7  F: -1766.914644219186130  |grad|_K:  1.640e-05  alpha:  4.425e-01  linmin:  1.157e-05  t[s]:     77.71
	FillingsUpdate:  mu: -0.099731925  nElectrons: 474.000000
	SubspaceRotationAdjust: set factor to 0.441
ElecMinimize: Iter:   8  F: -1766.918327351888365  |grad|_K:  1.062e-05  alpha:  3.581e-01  linmin:  3.929e-06  t[s]:     80.24
	FillingsUpdate:  mu: -0.101462484  nElectrons: 474.000000
	SubspaceRotationAdjust: set factor to 0.457
ElecMinimize: Iter:   9  F: -1766.920327653328741  |grad|_K:  7.852e-06  alpha:  4.632e-01  linmin:  1.940e-05  t[s]:     82.74
	FillingsUpdate:  mu: -0.102602329  nElectrons: 474.000000
	SubspaceRotationAdjust: set factor to 0.453
ElecMinimize: Iter:  10  F: -1766.921280083721967  |grad|_K:  5.905e-06  alpha:  4.053e-01  linmin: -9.683e-08  t[s]:     85.27
	FillingsUpdate:  mu: -0.102565289  nElectrons: 474.000000
	SubspaceRotationAdjust: set factor to 0.434
ElecMinimize: Iter:  11  F: -1766.921780188069533  |grad|_K:  3.686e-06  alpha:  3.736e-01  linmin: -2.277e-06  t[s]:     87.76
	FillingsUpdate:  mu: -0.102085146  nElectrons: 474.000000
	SubspaceRotationAdjust: set factor to 0.43
ElecMinimize: Iter:  12  F: -1766.922006730943394  |grad|_K:  2.885e-06  alpha:  4.340e-01  linmin:  1.493e-06  t[s]:     90.27
	FillingsUpdate:  mu: -0.102076965  nElectrons: 474.000000
	SubspaceRotationAdjust: set factor to 0.42
ElecMinimize: Iter:  13  F: -1766.922135954795522  |grad|_K:  1.916e-06  alpha:  4.045e-01  linmin:  1.361e-06  t[s]:     92.77
	FillingsUpdate:  mu: -0.102185377  nElectrons: 474.000000
	SubspaceRotationAdjust: set factor to 0.401
ElecMinimize: Iter:  14  F: -1766.922194881293080  |grad|_K:  1.457e-06  alpha:  4.184e-01  linmin:  2.101e-06  t[s]:     95.31
	FillingsUpdate:  mu: -0.102101199  nElectrons: 474.000000
	SubspaceRotationAdjust: set factor to 0.419
ElecMinimize: Iter:  15  F: -1766.922230615260332  |grad|_K:  1.055e-06  alpha:  4.390e-01  linmin:  2.653e-06  t[s]:     97.82
	FillingsUpdate:  mu: -0.102060437  nElectrons: 474.000000
	SubspaceRotationAdjust: set factor to 0.418
ElecMinimize: Iter:  16  F: -1766.922248937528138  |grad|_K:  8.038e-07  alpha:  4.294e-01  linmin:  1.773e-06  t[s]:    100.36
	FillingsUpdate:  mu: -0.102070025  nElectrons: 474.000000
	SubspaceRotationAdjust: set factor to 0.424
ElecMinimize: Iter:  17  F: -1766.922260773584412  |grad|_K:  6.468e-07  alpha:  4.778e-01  linmin:  2.452e-06  t[s]:    102.84
	FillingsUpdate:  mu: -0.102050851  nElectrons: 474.000000
	SubspaceRotationAdjust: set factor to 0.417
ElecMinimize: Iter:  18  F: -1766.922267480149912  |grad|_K:  5.026e-07  alpha:  4.183e-01  linmin:  1.396e-06  t[s]:    105.39
	FillingsUpdate:  mu: -0.102057110  nElectrons: 474.000000
	SubspaceRotationAdjust: set factor to 0.435
ElecMinimize: Iter:  19  F: -1766.922272526335519  |grad|_K:  4.015e-07  alpha:  5.214e-01  linmin:  2.657e-06  t[s]:    107.89
	FillingsUpdate:  mu: -0.102084594  nElectrons: 474.000000
	SubspaceRotationAdjust: set factor to 0.4
ElecMinimize: Iter:  20  F: -1766.922274979488293  |grad|_K:  3.148e-07  alpha:  3.976e-01  linmin:  4.378e-07  t[s]:    110.41
	FillingsUpdate:  mu: -0.102105998  nElectrons: 474.000000
	SubspaceRotationAdjust: set factor to 0.409
ElecMinimize: Iter:  21  F: -1766.922276896057383  |grad|_K:  2.487e-07  alpha:  5.044e-01  linmin:  1.437e-06  t[s]:    112.92
	FillingsUpdate:  mu: -0.102114905  nElectrons: 474.000000
	SubspaceRotationAdjust: set factor to 0.403
ElecMinimize: Iter:  22  F: -1766.922277930149221  |grad|_K:  1.968e-07  alpha:  4.366e-01  linmin:  3.293e-07  t[s]:    115.40
	FillingsUpdate:  mu: -0.102115272  nElectrons: 474.000000
	SubspaceRotationAdjust: set factor to 0.412
ElecMinimize: Iter:  23  F: -1766.922278627152537  |grad|_K:  1.566e-07  alpha:  4.693e-01  linmin:  4.161e-07  t[s]:    117.94
	FillingsUpdate:  mu: -0.102111591  nElectrons: 474.000000
	SubspaceRotationAdjust: set factor to 0.413
ElecMinimize: Iter:  24  F: -1766.922279061734571  |grad|_K:  1.277e-07  alpha:  4.624e-01  linmin:  2.253e-07  t[s]:    120.49
	FillingsUpdate:  mu: -0.102117492  nElectrons: 474.000000
	SubspaceRotationAdjust: set factor to 0.433
ElecMinimize: Iter:  25  F: -1766.922279346960295  |grad|_K:  9.860e-08  alpha:  4.562e-01  linmin:  1.039e-07  t[s]:    123.01
	FillingsUpdate:  mu: -0.102122722  nElectrons: 474.000000
	SubspaceRotationAdjust: set factor to 0.426
ElecMinimize: Iter:  26  F: -1766.922279517863444  |grad|_K:  7.867e-08  alpha:  4.580e-01  linmin:  5.207e-08  t[s]:    125.59
	FillingsUpdate:  mu: -0.102118005  nElectrons: 474.000000
	SubspaceRotationAdjust: set factor to 0.4
ElecMinimize: Iter:  27  F: -1766.922279619267101  |grad|_K:  6.226e-08  alpha:  4.268e-01  linmin:  9.004e-08  t[s]:    128.12
	FillingsUpdate:  mu: -0.102113224  nElectrons: 474.000000
	SubspaceRotationAdjust: set factor to 0.416
ElecMinimize: Iter:  28  F: -1766.922279690320011  |grad|_K:  4.795e-08  alpha:  4.777e-01  linmin:  9.010e-08  t[s]:    130.66
	FillingsUpdate:  mu: -0.102114055  nElectrons: 474.000000
	SubspaceRotationAdjust: set factor to 0.392
ElecMinimize: Iter:  29  F: -1766.922279732690185  |grad|_K:  4.184e-08  alpha:  4.803e-01  linmin:  1.504e-07  t[s]:    133.19
	FillingsUpdate:  mu: -0.102113874  nElectrons: 474.000000
	SubspaceRotationAdjust: set factor to 0.392
ElecMinimize: Iter:  30  F: -1766.922279761996379  |grad|_K:  3.192e-08  alpha:  4.366e-01  linmin:  1.359e-07  t[s]:    135.74
	FillingsUpdate:  mu: -0.102112729  nElectrons: 474.000000
	SubspaceRotationAdjust: set factor to 0.427
ElecMinimize: Iter:  31  F: -1766.922279783103932  |grad|_K:  2.776e-08  alpha:  5.407e-01  linmin:  2.624e-07  t[s]:    138.26
	FillingsUpdate:  mu: -0.102113296  nElectrons: 474.000000
	SubspaceRotationAdjust: set factor to 0.396
ElecMinimize: Iter:  32  F: -1766.922279796995099  |grad|_K:  2.456e-08  alpha:  4.706e-01  linmin:  3.380e-08  t[s]:    140.83
	FillingsUpdate:  mu: -0.102113758  nElectrons: 474.000000
	SubspaceRotationAdjust: set factor to 0.424
ElecMinimize: Iter:  33  F: -1766.922279808149142  |grad|_K:  1.899e-08  alpha:  4.807e-01  linmin: -3.976e-08  t[s]:    143.34
	FillingsUpdate:  mu: -0.102113729  nElectrons: 474.000000
	SubspaceRotationAdjust: set factor to 0.415
ElecMinimize: Iter:  34  F: -1766.922279815705224  |grad|_K:  1.766e-08  alpha:  5.444e-01  linmin:  2.709e-07  t[s]:    145.87
	FillingsUpdate:  mu: -0.102114173  nElectrons: 474.000000
	SubspaceRotationAdjust: set factor to 0.398
ElecMinimize: Iter:  35  F: -1766.922279821059192  |grad|_K:  1.417e-08  alpha:  4.490e-01  linmin: -3.309e-07  t[s]:    148.38
ElecMinimize: Converged (|Delta F|<1.000000e-08 for 2 iters).
Setting wave functions to eigenvectors of Hamiltonian
Vacuum energy after initial minimize, F = -1766.922279821059192


-------- Electronic minimization -----------
	Linear fluid (dielectric constant: 7.2) occupying 0.812290 of unit cell:	Completed after 13 iterations at t[s]:    149.03
	FillingsUpdate:  mu: -0.106018231  nElectrons: 474.000000
ElecMinimize: Iter:   0  F: -1766.971837254506454  |grad|_K:  1.643e-05  alpha:  1.000e+00
	Linear fluid (dielectric constant: 7.2) occupying 0.816556 of unit cell:	Completed after 10 iterations at t[s]:    151.20
	Linear fluid (dielectric constant: 7.2) occupying 0.815592 of unit cell:	Completed after 7 iterations at t[s]:    152.10
	FillingsUpdate:  mu: -0.102672516  nElectrons: 474.000000
	SubspaceRotationAdjust: set factor to 0.423
ElecMinimize: Iter:   1  F: -1766.980072606947715  |grad|_K:  1.523e-05  alpha:  7.686e-01  linmin:  3.426e-04  t[s]:    153.27
	Linear fluid (dielectric constant: 7.2) occupying 0.819156 of unit cell:	Completed after 11 iterations at t[s]:    154.19
	Linear fluid (dielectric constant: 7.2) occupying 0.818578 of unit cell:	Completed after 8 iterations at t[s]:    155.11
	FillingsUpdate:  mu: -0.098402876  nElectrons: 474.000000
	SubspaceRotationAdjust: set factor to 0.424
ElecMinimize: Iter:   2  F: -1766.985668602796295  |grad|_K:  1.579e-05  alpha:  6.384e-01  linmin:  1.313e-04  t[s]:    156.29
	Linear fluid (dielectric constant: 7.2) occupying 0.820985 of unit cell:	Completed after 12 iterations at t[s]:    157.22
	Linear fluid (dielectric constant: 7.2) occupying 0.820402 of unit cell:	Completed after 9 iterations at t[s]:    158.13
	FillingsUpdate:  mu: -0.095305585  nElectrons: 474.000000
	SubspaceRotationAdjust: set factor to 0.459
ElecMinimize: Iter:   3  F: -1766.990104620293096  |grad|_K:  1.418e-05  alpha:  4.772e-01  linmin: -6.532e-05  t[s]:    159.33
	Linear fluid (dielectric constant: 7.2) occupying 0.821343 of unit cell:	Completed after 11 iterations at t[s]:    160.27
	Linear fluid (dielectric constant: 7.2) occupying 0.821246 of unit cell:	Completed after 8 iterations at t[s]:    161.18
	FillingsUpdate:  mu: -0.092211920  nElectrons: 474.000000
	SubspaceRotationAdjust: set factor to 0.47
ElecMinimize: Iter:   4  F: -1766.993418942842254  |grad|_K:  1.243e-05  alpha:  4.263e-01  linmin: -9.967e-05  t[s]:    162.38
	Linear fluid (dielectric constant: 7.2) occupying 0.821737 of unit cell:	Completed after 12 iterations at t[s]:    163.30
	Linear fluid (dielectric constant: 7.2) occupying 0.821685 of unit cell:	Completed after 7 iterations at t[s]:    164.17
	FillingsUpdate:  mu: -0.088992594  nElectrons: 474.000000
	SubspaceRotationAdjust: set factor to 0.49
ElecMinimize: Iter:   5  F: -1766.995752334437611  |grad|_K:  1.017e-05  alpha:  3.808e-01  linmin: -3.504e-06  t[s]:    165.33
	Linear fluid (dielectric constant: 7.2) occupying 0.821932 of unit cell:	Completed after 11 iterations at t[s]:    166.25
	Linear fluid (dielectric constant: 7.2) occupying 0.821980 of unit cell:	Completed after 8 iterations at t[s]:    167.13
	FillingsUpdate:  mu: -0.086645737  nElectrons: 474.000000
	SubspaceRotationAdjust: set factor to 0.525
ElecMinimize: Iter:   6  F: -1766.997615110018614  |grad|_K:  9.388e-06  alpha:  4.637e-01  linmin: -3.681e-05  t[s]:    168.33
	Linear fluid (dielectric constant: 7.2) occupying 0.822085 of unit cell:	Completed after 12 iterations at t[s]:    169.27
	Linear fluid (dielectric constant: 7.2) occupying 0.822064 of unit cell:	Completed after 10 iterations at t[s]:    170.20
	FillingsUpdate:  mu: -0.085441012  nElectrons: 474.000000
	SubspaceRotationAdjust: set factor to 0.555
ElecMinimize: Iter:   7  F: -1766.998841224605940  |grad|_K:  7.972e-06  alpha:  3.379e-01  linmin:  3.341e-05  t[s]:    171.35
	Linear fluid (dielectric constant: 7.2) occupying 0.821898 of unit cell:	Completed after 11 iterations at t[s]:    172.25
	Linear fluid (dielectric constant: 7.2) occupying 0.821912 of unit cell:	Completed after 6 iterations at t[s]:    173.13
	FillingsUpdate:  mu: -0.084706780  nElectrons: 474.000000
	SubspaceRotationAdjust: set factor to 0.608
ElecMinimize: Iter:   8  F: -1766.999574689812562  |grad|_K:  6.828e-06  alpha:  3.121e-01  linmin: -1.679e-05  t[s]:    174.29
	Linear fluid (dielectric constant: 7.2) occupying 0.821631 of unit cell:	Completed after 9 iterations at t[s]:    175.17
	Linear fluid (dielectric constant: 7.2) occupying 0.821667 of unit cell:	Completed after 6 iterations at t[s]:    176.06
	FillingsUpdate:  mu: -0.084219670  nElectrons: 474.000000
	SubspaceRotationAdjust: set factor to 0.651
ElecMinimize: Iter:   9  F: -1767.000076903528452  |grad|_K:  5.502e-06  alpha:  2.755e-01  linmin: -2.215e-06  t[s]:    177.20
	Linear fluid (dielectric constant: 7.2) occupying 0.821494 of unit cell:	Completed after 10 iterations at t[s]:    178.10
	Linear fluid (dielectric constant: 7.2) occupying 0.821492 of unit cell:	Completed after 1 iterations at t[s]:    178.91
	FillingsUpdate:  mu: -0.083934514  nElectrons: 474.000000
	SubspaceRotationAdjust: set factor to 0.721
ElecMinimize: Iter:  10  F: -1767.000400801306569  |grad|_K:  4.589e-06  alpha:  2.782e-01  linmin:  3.880e-05  t[s]:    180.08
	Linear fluid (dielectric constant: 7.2) occupying 0.821370 of unit cell:	Completed after 9 iterations at t[s]:    180.99
	Linear fluid (dielectric constant: 7.2) occupying 0.821387 of unit cell:	Completed after 6 iterations at t[s]:    181.87
	FillingsUpdate:  mu: -0.083904120  nElectrons: 474.000000
	SubspaceRotationAdjust: set factor to 0.751
ElecMinimize: Iter:  11  F: -1767.000592447671352  |grad|_K:  3.901e-06  alpha:  2.432e-01  linmin:  3.485e-05  t[s]:    183.03
	Linear fluid (dielectric constant: 7.2) occupying 0.821321 of unit cell:	Completed after 9 iterations at t[s]:    183.91
	Linear fluid (dielectric constant: 7.2) occupying 0.821326 of unit cell:	Completed after 4 iterations at t[s]:    184.77
	FillingsUpdate:  mu: -0.083924529  nElectrons: 474.000000
	SubspaceRotationAdjust: set factor to 0.795
ElecMinimize: Iter:  12  F: -1767.000720590307310  |grad|_K:  3.465e-06  alpha:  2.246e-01  linmin:  2.474e-05  t[s]:    185.92
	Linear fluid (dielectric constant: 7.2) occupying 0.821297 of unit cell:	Completed after 8 iterations at t[s]:    186.83
	Linear fluid (dielectric constant: 7.2) occupying 0.821301 of unit cell:	Completed after 5 iterations at t[s]:    187.68
	FillingsUpdate:  mu: -0.083877045  nElectrons: 474.000000
	SubspaceRotationAdjust: set factor to 0.854
ElecMinimize: Iter:  13  F: -1767.000810466640587  |grad|_K:  2.922e-06  alpha:  1.979e-01  linmin: -1.027e-05  t[s]:    188.86
	Linear fluid (dielectric constant: 7.2) occupying 0.821281 of unit cell:	Completed after 8 iterations at t[s]:    189.75
	Linear fluid (dielectric constant: 7.2) occupying 0.821283 of unit cell:	Completed after 4 iterations at t[s]:    190.65
	FillingsUpdate:  mu: -0.083808334  nElectrons: 474.000000
	SubspaceRotationAdjust: set factor to 0.905
ElecMinimize: Iter:  14  F: -1767.000868192384814  |grad|_K:  2.438e-06  alpha:  1.749e-01  linmin: -1.392e-05  t[s]:    191.78
	Linear fluid (dielectric constant: 7.2) occupying 0.821256 of unit cell:	Completed after 7 iterations at t[s]:    192.64
	Linear fluid (dielectric constant: 7.2) occupying 0.821254 of unit cell:	Completed after 2 iterations at t[s]:    193.48
	FillingsUpdate:  mu: -0.083780827  nElectrons: 474.000000
	SubspaceRotationAdjust: set factor to 1.01
ElecMinimize: Iter:  15  F: -1767.000910860624572  |grad|_K:  2.241e-06  alpha:  1.846e-01  linmin: -1.127e-05  t[s]:    194.61
	Linear fluid (dielectric constant: 7.2) occupying 0.821223 of unit cell:	Completed after 7 iterations at t[s]:    195.48
	Linear fluid (dielectric constant: 7.2) occupying 0.821223 of unit cell:	Completed after 0 iterations at t[s]:    196.27
	FillingsUpdate:  mu: -0.083790546  nElectrons: 474.000000
	SubspaceRotationAdjust: set factor to 1.07
ElecMinimize: Iter:  16  F: -1767.000946856438532  |grad|_K:  2.114e-06  alpha:  1.838e-01  linmin: -5.095e-06  t[s]:    197.37
	Linear fluid (dielectric constant: 7.2) occupying 0.821216 of unit cell:	Completed after 7 iterations at t[s]:    198.25
	Linear fluid (dielectric constant: 7.2) occupying 0.821216 of unit cell:	Completed after 2 iterations at t[s]:    199.08
	FillingsUpdate:  mu: -0.083792176  nElectrons: 474.000000
	SubspaceRotationAdjust: set factor to 1.19
ElecMinimize: Iter:  17  F: -1767.000976945941829  |grad|_K:  2.003e-06  alpha:  1.738e-01  linmin: -7.258e-06  t[s]:    200.19
	Linear fluid (dielectric constant: 7.2) occupying 0.821238 of unit cell:	Completed after 7 iterations at t[s]:    201.07
	Linear fluid (dielectric constant: 7.2) occupying 0.821237 of unit cell:	Completed after 2 iterations at t[s]:    201.89
	FillingsUpdate:  mu: -0.083772944  nElectrons: 474.000000
	SubspaceRotationAdjust: set factor to 1.3
ElecMinimize: Iter:  18  F: -1767.001002573258347  |grad|_K:  1.927e-06  alpha:  1.644e-01  linmin: -1.329e-05  t[s]:    203.02
	Linear fluid (dielectric constant: 7.2) occupying 0.821269 of unit cell:	Completed after 8 iterations at t[s]:    203.88
	Linear fluid (dielectric constant: 7.2) occupying 0.821267 of unit cell:	Completed after 3 iterations at t[s]:    204.71
	FillingsUpdate:  mu: -0.083757788  nElectrons: 474.000000
	SubspaceRotationAdjust: set factor to 1.44
ElecMinimize: Iter:  19  F: -1767.001024940787602  |grad|_K:  1.825e-06  alpha:  1.538e-01  linmin: -1.792e-05  t[s]:    205.84
	Linear fluid (dielectric constant: 7.2) occupying 0.821284 of unit cell:	Completed after 8 iterations at t[s]:    206.72
	Linear fluid (dielectric constant: 7.2) occupying 0.821282 of unit cell:	Completed after 4 iterations at t[s]:    207.56
	FillingsUpdate:  mu: -0.083762271  nElectrons: 474.000000
	SubspaceRotationAdjust: set factor to 1.57
ElecMinimize: Iter:  20  F: -1767.001042792854832  |grad|_K:  1.697e-06  alpha:  1.367e-01  linmin: -1.448e-05  t[s]:    208.69
	Linear fluid (dielectric constant: 7.2) occupying 0.821283 of unit cell:	Completed after 7 iterations at t[s]:    209.56
	Linear fluid (dielectric constant: 7.2) occupying 0.821283 of unit cell:	Completed after 0 iterations at t[s]:    210.36
	FillingsUpdate:  mu: -0.083764411  nElectrons: 474.000000
	SubspaceRotationAdjust: set factor to 1.69
ElecMinimize: Iter:  21  F: -1767.001058022674897  |grad|_K:  1.710e-06  alpha:  1.359e-01  linmin:  9.895e-06  t[s]:    211.47
	Linear fluid (dielectric constant: 7.2) occupying 0.821286 of unit cell:	Completed after 7 iterations at t[s]:    212.35
	Linear fluid (dielectric constant: 7.2) occupying 0.821286 of unit cell:	Completed after 3 iterations at t[s]:    213.18
	FillingsUpdate:  mu: -0.083742836  nElectrons: 474.000000
	SubspaceRotationAdjust: set factor to 1.94
ElecMinimize: Iter:  22  F: -1767.001071435227004  |grad|_K:  1.609e-06  alpha:  1.200e-01  linmin:  1.471e-05  t[s]:    214.35
	Linear fluid (dielectric constant: 7.2) occupying 0.821291 of unit cell:	Completed after 7 iterations at t[s]:    215.22
	Linear fluid (dielectric constant: 7.2) occupying 0.821290 of unit cell:	Completed after 3 iterations at t[s]:    216.08
	FillingsUpdate:  mu: -0.083718946  nElectrons: 474.000000
	SubspaceRotationAdjust: set factor to 2.15
ElecMinimize: Iter:  23  F: -1767.001081403401486  |grad|_K:  1.486e-06  alpha:  1.018e-01  linmin:  5.172e-06  t[s]:    217.23
	Linear fluid (dielectric constant: 7.2) occupying 0.821292 of unit cell:	Completed after 6 iterations at t[s]:    218.08
	Linear fluid (dielectric constant: 7.2) occupying 0.821292 of unit cell:	Completed after 0 iterations at t[s]:    218.87
	FillingsUpdate:  mu: -0.083709006  nElectrons: 474.000000
	SubspaceRotationAdjust: set factor to 2.36
ElecMinimize: Iter:  24  F: -1767.001089860048978  |grad|_K:  1.431e-06  alpha:  1.006e-01  linmin: -1.294e-06  t[s]:    219.98
	Linear fluid (dielectric constant: 7.2) occupying 0.821288 of unit cell:	Completed after 6 iterations at t[s]:    220.84
	Linear fluid (dielectric constant: 7.2) occupying 0.821288 of unit cell:	Completed after 1 iterations at t[s]:    221.64
	FillingsUpdate:  mu: -0.083712095  nElectrons: 474.000000
	SubspaceRotationAdjust: set factor to 2.54
ElecMinimize: Iter:  25  F: -1767.001097420263932  |grad|_K:  1.357e-06  alpha:  9.598e-02  linmin: -1.331e-05  t[s]:    222.80
	Linear fluid (dielectric constant: 7.2) occupying 0.821286 of unit cell:	Completed after 5 iterations at t[s]:    223.66
	Linear fluid (dielectric constant: 7.2) occupying 0.821286 of unit cell:	Completed after 0 iterations at t[s]:    224.43
	FillingsUpdate:  mu: -0.083710141  nElectrons: 474.000000
	SubspaceRotationAdjust: set factor to 2.82
ElecMinimize: Iter:  26  F: -1767.001104031335217  |grad|_K:  1.236e-06  alpha:  9.138e-02  linmin: -2.816e-05  t[s]:    225.55
	Linear fluid (dielectric constant: 7.2) occupying 0.821289 of unit cell:	Completed after 5 iterations at t[s]:    226.37
	Linear fluid (dielectric constant: 7.2) occupying 0.821289 of unit cell:	Completed after 0 iterations at t[s]:    227.17
	FillingsUpdate:  mu: -0.083701783  nElectrons: 474.000000
	SubspaceRotationAdjust: set factor to 3.05
	SubspaceRotationAdjust: resetting CG because factor has changed by 7.67101
	Linear fluid (dielectric constant: 7.2) occupying 0.821289 of unit cell:	Completed after 0 iterations at t[s]:    228.72
ElecMinimize: 	State modified externally: resetting search direction.
ElecMinimize: Iter:  27  F: -1767.001109272639042  |grad|_K:  1.112e-06  alpha:  8.623e-02
	Linear fluid (dielectric constant: 7.2) occupying 0.821290 of unit cell:	Completed after 3 iterations at t[s]:    230.64
	Linear fluid (dielectric constant: 7.2) occupying 0.821291 of unit cell:	Completed after 5 iterations at t[s]:    231.47
	FillingsUpdate:  mu: -0.083719602  nElectrons: 474.000000
	SubspaceRotationAdjust: set factor to 1.9
ElecMinimize: Iter:  28  F: -1767.001120143806929  |grad|_K:  1.507e-06  alpha:  2.455e-01  linmin:  1.515e-04  t[s]:    232.65
	Linear fluid (dielectric constant: 7.2) occupying 0.821319 of unit cell:	Completed after 6 iterations at t[s]:    233.52
	Linear fluid (dielectric constant: 7.2) occupying 0.821301 of unit cell:	Completed after 5 iterations at t[s]:    235.31
	FillingsUpdate:  mu: -0.083701147  nElectrons: 474.000000
	SubspaceRotationAdjust: set factor to 1.84
ElecMinimize: Iter:  29  F: -1767.001126357297835  |grad|_K:  7.140e-07  alpha:  7.826e-02  linmin:  3.020e-05  t[s]:    236.44
	Linear fluid (dielectric constant: 7.2) occupying 0.821298 of unit cell:	Completed after 3 iterations at t[s]:    237.27
	Linear fluid (dielectric constant: 7.2) occupying 0.821293 of unit cell:	Completed after 4 iterations at t[s]:    238.10
	FillingsUpdate:  mu: -0.083710832  nElectrons: 474.000000
	SubspaceRotationAdjust: set factor to 1.66
ElecMinimize: Iter:  30  F: -1767.001129956257273  |grad|_K:  6.842e-07  alpha:  1.877e-01  linmin:  2.285e-07  t[s]:    243.80
	Linear fluid (dielectric constant: 7.2) occupying 0.821283 of unit cell:	Completed after 5 iterations at t[s]:    250.73
	Linear fluid (dielectric constant: 7.2) occupying 0.821285 of unit cell:	Completed after 2 iterations at t[s]:    251.55
	FillingsUpdate:  mu: -0.083722150  nElectrons: 474.000000
	SubspaceRotationAdjust: set factor to 1.55
ElecMinimize: Iter:  31  F: -1767.001132664926899  |grad|_K:  5.812e-07  alpha:  1.517e-01  linmin: -6.105e-05  t[s]:    252.69
	Linear fluid (dielectric constant: 7.2) occupying 0.821285 of unit cell:	Completed after 4 iterations at t[s]:    253.53
	Linear fluid (dielectric constant: 7.2) occupying 0.821285 of unit cell:	Completed after 2 iterations at t[s]:    254.37
	FillingsUpdate:  mu: -0.083707942  nElectrons: 474.000000
	SubspaceRotationAdjust: set factor to 1.6
ElecMinimize: Iter:  32  F: -1767.001135529066460  |grad|_K:  5.398e-07  alpha:  2.176e-01  linmin:  1.819e-05  t[s]:    255.48
	Linear fluid (dielectric constant: 7.2) occupying 0.821275 of unit cell:	Completed after 5 iterations at t[s]:    256.35
	Linear fluid (dielectric constant: 7.2) occupying 0.821276 of unit cell:	Completed after 1 iterations at t[s]:    257.14
	FillingsUpdate:  mu: -0.083701374  nElectrons: 474.000000
	SubspaceRotationAdjust: set factor to 1.43
ElecMinimize: Iter:  33  F: -1767.001137657307709  |grad|_K:  5.007e-07  alpha:  1.907e-01  linmin:  1.197e-04  t[s]:    258.29
	Linear fluid (dielectric constant: 7.2) occupying 0.821263 of unit cell:	Completed after 5 iterations at t[s]:    259.19
	Linear fluid (dielectric constant: 7.2) occupying 0.821263 of unit cell:	Completed after 0 iterations at t[s]:    259.96
	FillingsUpdate:  mu: -0.083704601  nElectrons: 474.000000
	SubspaceRotationAdjust: set factor to 1.42
ElecMinimize: Iter:  34  F: -1767.001139365210747  |grad|_K:  4.183e-07  alpha:  1.931e-01  linmin:  1.781e-04  t[s]:    261.08
	Linear fluid (dielectric constant: 7.2) occupying 0.821269 of unit cell:	Completed after 4 iterations at t[s]:    261.89
	Linear fluid (dielectric constant: 7.2) occupying 0.821270 of unit cell:	Completed after 0 iterations at t[s]:    262.70
	FillingsUpdate:  mu: -0.083689830  nElectrons: 474.000000
	SubspaceRotationAdjust: set factor to 1.4
ElecMinimize: Iter:  35  F: -1767.001140540691267  |grad|_K:  3.773e-07  alpha:  2.005e-01  linmin:  7.708e-05  t[s]:    263.83
	Linear fluid (dielectric constant: 7.2) occupying 0.821279 of unit cell:	Completed after 5 iterations at t[s]:    264.67
	Linear fluid (dielectric constant: 7.2) occupying 0.821278 of unit cell:	Completed after 0 iterations at t[s]:    265.47
	FillingsUpdate:  mu: -0.083678436  nElectrons: 474.000000
	SubspaceRotationAdjust: set factor to 1.34
ElecMinimize: Iter:  36  F: -1767.001141512863796  |grad|_K:  3.490e-07  alpha:  1.886e-01  linmin: -1.586e-06  t[s]:    266.56
	Linear fluid (dielectric constant: 7.2) occupying 0.821275 of unit cell:	Completed after 4 iterations at t[s]:    267.42
	Linear fluid (dielectric constant: 7.2) occupying 0.821273 of unit cell:	Completed after 4 iterations at t[s]:    268.24
	FillingsUpdate:  mu: -0.083684110  nElectrons: 474.000000
	SubspaceRotationAdjust: set factor to 1.31
ElecMinimize: Iter:  37  F: -1767.001142839740851  |grad|_K:  4.518e-07  alpha:  2.964e-01  linmin:  1.371e-04  t[s]:    269.36
	Linear fluid (dielectric constant: 7.2) occupying 0.821267 of unit cell:	Completed after 7 iterations at t[s]:    270.23
	Linear fluid (dielectric constant: 7.2) occupying 0.821268 of unit cell:	Completed after 2 iterations at t[s]:    271.03
	FillingsUpdate:  mu: -0.083666301  nElectrons: 474.000000
	SubspaceRotationAdjust: set factor to 1.34
ElecMinimize: Iter:  38  F: -1767.001144804577962  |grad|_K:  5.868e-07  alpha:  2.712e-01  linmin:  1.753e-04  t[s]:    272.18
	Linear fluid (dielectric constant: 7.2) occupying 0.821285 of unit cell:	Completed after 8 iterations at t[s]:    273.06
	Linear fluid (dielectric constant: 7.2) occupying 0.821274 of unit cell:	Completed after 7 iterations at t[s]:    273.94
	FillingsUpdate:  mu: -0.083641043  nElectrons: 474.000000
	SubspaceRotationAdjust: set factor to 1.68
ElecMinimize: Iter:  39  F: -1767.001146207220472  |grad|_K:  5.664e-07  alpha:  9.488e-02  linmin: -7.795e-05  t[s]:    275.08
	Linear fluid (dielectric constant: 7.2) occupying 0.821286 of unit cell:	Completed after 6 iterations at t[s]:    275.94
	Linear fluid (dielectric constant: 7.2) occupying 0.821287 of unit cell:	Completed after 0 iterations at t[s]:    276.72
	FillingsUpdate:  mu: -0.083608533  nElectrons: 474.000000
	SubspaceRotationAdjust: set factor to 1.82
ElecMinimize: Iter:  40  F: -1767.001147508591202  |grad|_K:  5.128e-07  alpha:  9.642e-02  linmin:  9.136e-05  t[s]:    277.82
	Linear fluid (dielectric constant: 7.2) occupying 0.821296 of unit cell:	Completed after 6 iterations at t[s]:    278.69
	Linear fluid (dielectric constant: 7.2) occupying 0.821293 of unit cell:	Completed after 3 iterations at t[s]:    279.51
	FillingsUpdate:  mu: -0.083594744  nElectrons: 474.000000
	SubspaceRotationAdjust: set factor to 1.98
ElecMinimize: Iter:  41  F: -1767.001148083315002  |grad|_K:  5.453e-07  alpha:  6.694e-02  linmin: -1.753e-06  t[s]:    280.69
	Linear fluid (dielectric constant: 7.2) occupying 0.821296 of unit cell:	Completed after 5 iterations at t[s]:    281.55
	Linear fluid (dielectric constant: 7.2) occupying 0.821297 of unit cell:	Completed after 1 iterations at t[s]:    282.35
	FillingsUpdate:  mu: -0.083587668  nElectrons: 474.000000
	SubspaceRotationAdjust: set factor to 2.23
ElecMinimize: Iter:  42  F: -1767.001148931617081  |grad|_K:  5.960e-07  alpha:  7.357e-02  linmin: -8.079e-05  t[s]:    283.46
	Linear fluid (dielectric constant: 7.2) occupying 0.821296 of unit cell:	Completed after 5 iterations at t[s]:    284.31
	Linear fluid (dielectric constant: 7.2) occupying 0.821296 of unit cell:	Completed after 2 iterations at t[s]:    285.12
	FillingsUpdate:  mu: -0.083586797  nElectrons: 474.000000
	SubspaceRotationAdjust: set factor to 2.66
ElecMinimize: Iter:  43  F: -1767.001149884590859  |grad|_K:  6.122e-07  alpha:  6.426e-02  linmin: -8.974e-05  t[s]:    286.24
	Linear fluid (dielectric constant: 7.2) occupying 0.821292 of unit cell:	Completed after 5 iterations at t[s]:    287.09
	Linear fluid (dielectric constant: 7.2) occupying 0.821292 of unit cell:	Completed after 2 iterations at t[s]:    287.91
	FillingsUpdate:  mu: -0.083586661  nElectrons: 474.000000
	SubspaceRotationAdjust: set factor to 2.99
ElecMinimize: Iter:  44  F: -1767.001150720838268  |grad|_K:  5.887e-07  alpha:  5.238e-02  linmin: -6.158e-05  t[s]:    289.05
	Linear fluid (dielectric constant: 7.2) occupying 0.821288 of unit cell:	Completed after 5 iterations at t[s]:    289.91
	Linear fluid (dielectric constant: 7.2) occupying 0.821289 of unit cell:	Completed after 1 iterations at t[s]:    290.71
	FillingsUpdate:  mu: -0.083582454  nElectrons: 474.000000
	SubspaceRotationAdjust: set factor to 3.29
ElecMinimize: Iter:  45  F: -1767.001151414947799  |grad|_K:  5.908e-07  alpha:  4.748e-02  linmin: -3.392e-05  t[s]:    291.83
	Linear fluid (dielectric constant: 7.2) occupying 0.821286 of unit cell:	Completed after 5 iterations at t[s]:    292.68
	Linear fluid (dielectric constant: 7.2) occupying 0.821287 of unit cell:	Completed after 0 iterations at t[s]:    293.48
	FillingsUpdate:  mu: -0.083574214  nElectrons: 474.000000
	SubspaceRotationAdjust: set factor to 3.92
ElecMinimize: Iter:  46  F: -1767.001152047022742  |grad|_K:  5.827e-07  alpha:  4.409e-02  linmin:  1.332e-05  t[s]:    294.59
	Linear fluid (dielectric constant: 7.2) occupying 0.821287 of unit cell:	Completed after 5 iterations at t[s]:    295.43
	Linear fluid (dielectric constant: 7.2) occupying 0.821287 of unit cell:	Completed after 1 iterations at t[s]:    296.21
	FillingsUpdate:  mu: -0.083566614  nElectrons: 474.000000
	SubspaceRotationAdjust: set factor to 4.55
ElecMinimize: Iter:  47  F: -1767.001152543831267  |grad|_K:  5.547e-07  alpha:  3.855e-02  linmin:  4.062e-05  t[s]:    297.33
	Linear fluid (dielectric constant: 7.2) occupying 0.821290 of unit cell:	Completed after 4 iterations at t[s]:    298.18
	Linear fluid (dielectric constant: 7.2) occupying 0.821290 of unit cell:	Completed after 0 iterations at t[s]:    298.95
	FillingsUpdate:  mu: -0.083562705  nElectrons: 474.000000
	SubspaceRotationAdjust: set factor to 5.08
ElecMinimize: Iter:  48  F: -1767.001152955458338  |grad|_K:  5.761e-07  alpha:  3.802e-02  linmin:  7.536e-05  t[s]:    300.08
	Linear fluid (dielectric constant: 7.2) occupying 0.821296 of unit cell:	Completed after 4 iterations at t[s]:    300.92
	Linear fluid (dielectric constant: 7.2) occupying 0.821296 of unit cell:	Completed after 0 iterations at t[s]:    301.72
	FillingsUpdate:  mu: -0.083558702  nElectrons: 474.000000
	SubspaceRotationAdjust: set factor to 6.23
ElecMinimize: Iter:  49  F: -1767.001153358286729  |grad|_K:  5.892e-07  alpha:  3.659e-02  linmin:  8.883e-05  t[s]:    302.83
	Linear fluid (dielectric constant: 7.2) occupying 0.821302 of unit cell:	Completed after 4 iterations at t[s]:    303.68
	Linear fluid (dielectric constant: 7.2) occupying 0.821301 of unit cell:	Completed after 1 iterations at t[s]:    304.47
	FillingsUpdate:  mu: -0.083553894  nElectrons: 474.000000
	SubspaceRotationAdjust: set factor to 7.24
ElecMinimize: Iter:  50  F: -1767.001153689332341  |grad|_K:  5.418e-07  alpha:  2.915e-02  linmin:  4.252e-05  t[s]:    305.63
	Linear fluid (dielectric constant: 7.2) occupying 0.821303 of unit cell:	Completed after 2 iterations at t[s]:    306.45
	Linear fluid (dielectric constant: 7.2) occupying 0.821303 of unit cell:	Completed after 0 iterations at t[s]:    307.25
	FillingsUpdate:  mu: -0.083549937  nElectrons: 474.000000
	SubspaceRotationAdjust: set factor to 7.8
ElecMinimize: Iter:  51  F: -1767.001153988339638  |grad|_K:  5.652e-07  alpha:  2.953e-02  linmin:  3.086e-06  t[s]:    308.35
	Linear fluid (dielectric constant: 7.2) occupying 0.821302 of unit cell:	Completed after 3 iterations at t[s]:    309.18
	Linear fluid (dielectric constant: 7.2) occupying 0.821302 of unit cell:	Completed after 0 iterations at t[s]:    309.97
	FillingsUpdate:  mu: -0.083549910  nElectrons: 474.000000
	SubspaceRotationAdjust: set factor to 9.74
ElecMinimize: Iter:  52  F: -1767.001154349185299  |grad|_K:  5.764e-07  alpha:  2.965e-02  linmin: -4.438e-05  t[s]:    311.09
	Linear fluid (dielectric constant: 7.2) occupying 0.821300 of unit cell:	Completed after 3 iterations at t[s]:    311.95
	Linear fluid (dielectric constant: 7.2) occupying 0.821300 of unit cell:	Completed after 0 iterations at t[s]:    312.74
	FillingsUpdate:  mu: -0.083552923  nElectrons: 474.000000
	SubspaceRotationAdjust: set factor to 11.1
ElecMinimize: Iter:  53  F: -1767.001154694763272  |grad|_K:  5.248e-07  alpha:  2.517e-02  linmin: -5.078e-05  t[s]:    313.85
	Linear fluid (dielectric constant: 7.2) occupying 0.821300 of unit cell:	Completed after 2 iterations at t[s]:    314.66
	Linear fluid (dielectric constant: 7.2) occupying 0.821300 of unit cell:	Completed after 0 iterations at t[s]:    315.42
	FillingsUpdate:  mu: -0.083555609  nElectrons: 474.000000
	SubspaceRotationAdjust: set factor to 12.1
ElecMinimize: Iter:  54  F: -1767.001154978127033  |grad|_K:  4.943e-07  alpha:  2.421e-02  linmin: -6.539e-05  t[s]:    316.54
	Linear fluid (dielectric constant: 7.2) occupying 0.821302 of unit cell:	Completed after 2 iterations at t[s]:    317.36
	Linear fluid (dielectric constant: 7.2) occupying 0.821302 of unit cell:	Completed after 0 iterations at t[s]:    318.12
	FillingsUpdate:  mu: -0.083553299  nElectrons: 474.000000
	SubspaceRotationAdjust: set factor to 12.9
ElecMinimize: Iter:  55  F: -1767.001155271806510  |grad|_K:  5.160e-07  alpha:  2.581e-02  linmin: -9.856e-05  t[s]:    319.27
	Linear fluid (dielectric constant: 7.2) occupying 0.821302 of unit cell:	Completed after 2 iterations at t[s]:    320.09
	Linear fluid (dielectric constant: 7.2) occupying 0.821302 of unit cell:	Completed after 0 iterations at t[s]:    320.88
	FillingsUpdate:  mu: -0.083551947  nElectrons: 474.000000
	SubspaceRotationAdjust: set factor to 15.7
ElecMinimize: Iter:  56  F: -1767.001155672818186  |grad|_K:  5.214e-07  alpha:  2.934e-02  linmin: -1.064e-04  t[s]:    321.98
	Linear fluid (dielectric constant: 7.2) occupying 0.821300 of unit cell:	Completed after 3 iterations at t[s]:    322.80
	Linear fluid (dielectric constant: 7.2) occupying 0.821301 of unit cell:	Completed after 1 iterations at t[s]:    323.59
	FillingsUpdate:  mu: -0.083554304  nElectrons: 474.000000
	SubspaceRotationAdjust: set factor to 15.1
ElecMinimize: Iter:  57  F: -1767.001155989657946  |grad|_K:  4.900e-07  alpha:  2.369e-02  linmin: -4.823e-05  t[s]:    324.71
	Linear fluid (dielectric constant: 7.2) occupying 0.821302 of unit cell:	Completed after 2 iterations at t[s]:    325.54
	Linear fluid (dielectric constant: 7.2) occupying 0.821302 of unit cell:	Completed after 0 iterations at t[s]:    326.30
	FillingsUpdate:  mu: -0.083554346  nElectrons: 474.000000
	SubspaceRotationAdjust: set factor to 16.8
ElecMinimize: Iter:  58  F: -1767.001156281454541  |grad|_K:  4.839e-07  alpha:  2.646e-02  linmin: -6.502e-05  t[s]:    327.48
	Linear fluid (dielectric constant: 7.2) occupying 0.821304 of unit cell:	Completed after 2 iterations at t[s]:    328.29
	Linear fluid (dielectric constant: 7.2) occupying 0.821304 of unit cell:	Completed after 0 iterations at t[s]:    329.08
	FillingsUpdate:  mu: -0.083554000  nElectrons: 474.000000
	SubspaceRotationAdjust: set factor to 17.3
ElecMinimize: Iter:  59  F: -1767.001156540793772  |grad|_K:  4.889e-07  alpha:  2.426e-02  linmin: -3.861e-05  t[s]:    330.19
	Linear fluid (dielectric constant: 7.2) occupying 0.821301 of unit cell:	Completed after 2 iterations at t[s]:    331.01
	Linear fluid (dielectric constant: 7.2) occupying 0.821301 of unit cell:	Completed after 0 iterations at t[s]:    331.79
	FillingsUpdate:  mu: -0.083559087  nElectrons: 474.000000
	SubspaceRotationAdjust: set factor to 17.5
ElecMinimize: Iter:  60  F: -1767.001156769378440  |grad|_K:  4.998e-07  alpha:  2.222e-02  linmin: -2.898e-05  t[s]:    332.90
	Linear fluid (dielectric constant: 7.2) occupying 0.821296 of unit cell:	Completed after 2 iterations at t[s]:    333.73
	Linear fluid (dielectric constant: 7.2) occupying 0.821296 of unit cell:	Completed after 0 iterations at t[s]:    334.49
	FillingsUpdate:  mu: -0.083561975  nElectrons: 474.000000
	SubspaceRotationAdjust: set factor to 19.4
ElecMinimize: Iter:  61  F: -1767.001157003788649  |grad|_K:  4.504e-07  alpha:  2.224e-02  linmin: -3.123e-05  t[s]:    335.64
	Linear fluid (dielectric constant: 7.2) occupying 0.821296 of unit cell:	Completed after 2 iterations at t[s]:    336.46
	Linear fluid (dielectric constant: 7.2) occupying 0.821296 of unit cell:	Completed after 0 iterations at t[s]:    337.24
	FillingsUpdate:  mu: -0.083560715  nElectrons: 474.000000
	SubspaceRotationAdjust: set factor to 18.4
ElecMinimize: Iter:  62  F: -1767.001157204750371  |grad|_K:  4.617e-07  alpha:  2.365e-02  linmin: -7.573e-07  t[s]:    338.33
	Linear fluid (dielectric constant: 7.2) occupying 0.821299 of unit cell:	Completed after 2 iterations at t[s]:    339.16
	Linear fluid (dielectric constant: 7.2) occupying 0.821299 of unit cell:	Completed after 0 iterations at t[s]:    339.92
	FillingsUpdate:  mu: -0.083558848  nElectrons: 474.000000
	SubspaceRotationAdjust: set factor to 18.3
ElecMinimize: Iter:  63  F: -1767.001157416625801  |grad|_K:  4.598e-07  alpha:  2.644e-02  linmin:  5.057e-05  t[s]:    341.04
	Linear fluid (dielectric constant: 7.2) occupying 0.821305 of unit cell:	Completed after 2 iterations at t[s]:    341.87
	Linear fluid (dielectric constant: 7.2) occupying 0.821304 of unit cell:	Completed after 1 iterations at t[s]:    342.65
	FillingsUpdate:  mu: -0.083555340  nElectrons: 474.000000
	SubspaceRotationAdjust: set factor to 18.9
ElecMinimize: Iter:  64  F: -1767.001157555918780  |grad|_K:  4.275e-07  alpha:  2.023e-02  linmin:  4.559e-05  t[s]:    343.83
	Linear fluid (dielectric constant: 7.2) occupying 0.821304 of unit cell:	Completed after 1 iterations at t[s]:    344.63
	Linear fluid (dielectric constant: 7.2) occupying 0.821304 of unit cell:	Completed after 0 iterations at t[s]:    345.41
	FillingsUpdate:  mu: -0.083555417  nElectrons: 474.000000
	SubspaceRotationAdjust: set factor to 20.3
ElecMinimize: Iter:  65  F: -1767.001157687600653  |grad|_K:  4.202e-07  alpha:  2.366e-02  linmin:  3.128e-05  t[s]:    346.50
	Linear fluid (dielectric constant: 7.2) occupying 0.821300 of unit cell:	Completed after 2 iterations at t[s]:    347.34
	Linear fluid (dielectric constant: 7.2) occupying 0.821301 of unit cell:	Completed after 0 iterations at t[s]:    348.10
	FillingsUpdate:  mu: -0.083557627  nElectrons: 474.000000
	SubspaceRotationAdjust: set factor to 21.8
ElecMinimize: Iter:  66  F: -1767.001157786575277  |grad|_K:  4.323e-07  alpha:  1.751e-02  linmin: -2.298e-05  t[s]:    349.24
	Linear fluid (dielectric constant: 7.2) occupying 0.821299 of unit cell:	Completed after 1 iterations at t[s]:    350.07
	Linear fluid (dielectric constant: 7.2) occupying 0.821300 of unit cell:	Completed after 0 iterations at t[s]:    350.84
	FillingsUpdate:  mu: -0.083558980  nElectrons: 474.000000
	SubspaceRotationAdjust: set factor to 23.6
	SubspaceRotationAdjust: resetting CG because factor has changed by 7.73686
	Linear fluid (dielectric constant: 7.2) occupying 0.821300 of unit cell:	Completed after 0 iterations at t[s]:    352.41
ElecMinimize: 	State modified externally: resetting search direction.
ElecMinimize: Iter:  67  F: -1767.001157897188023  |grad|_K:  4.025e-07  alpha:  1.528e-02
	Linear fluid (dielectric constant: 7.2) occupying 0.821302 of unit cell:	Completed after 1 iterations at t[s]:    354.29
	Linear fluid (dielectric constant: 7.2) occupying 0.821303 of unit cell:	Completed after 0 iterations at t[s]:    355.05
	FillingsUpdate:  mu: -0.083558550  nElectrons: 474.000000
	SubspaceRotationAdjust: set factor to 25.9
ElecMinimize: Iter:  68  F: -1767.001158020985713  |grad|_K:  4.103e-07  alpha:  1.868e-02  linmin: -1.023e-04  t[s]:    356.21
	Linear fluid (dielectric constant: 7.2) occupying 0.821301 of unit cell:	Completed after 1 iterations at t[s]:    357.00
	Linear fluid (dielectric constant: 7.2) occupying 0.821299 of unit cell:	Completed after 1 iterations at t[s]:    357.80
	FillingsUpdate:  mu: -0.083559232  nElectrons: 474.000000
	SubspaceRotationAdjust: set factor to 18
ElecMinimize: Iter:  69  F: -1767.001158340529173  |grad|_K:  5.085e-07  alpha:  3.130e-02  linmin: -1.819e-04  t[s]:    358.90
	Linear fluid (dielectric constant: 7.2) occupying 0.821299 of unit cell:	Completed after 2 iterations at t[s]:    359.73
	Linear fluid (dielectric constant: 7.2) occupying 0.821299 of unit cell:	Completed after 0 iterations at t[s]:    360.51
	FillingsUpdate:  mu: -0.083563795  nElectrons: 474.000000
	SubspaceRotationAdjust: set factor to 10.5
ElecMinimize: Iter:  70  F: -1767.001158719971727  |grad|_K:  5.993e-07  alpha:  2.524e-02  linmin: -1.411e-04  t[s]:    361.62
	Linear fluid (dielectric constant: 7.2) occupying 0.821294 of unit cell:	Completed after 2 iterations at t[s]:    362.43
	Linear fluid (dielectric constant: 7.2) occupying 0.821294 of unit cell:	Completed after 0 iterations at t[s]:    363.18
	FillingsUpdate:  mu: -0.083560906  nElectrons: 474.000000
	SubspaceRotationAdjust: set factor to 6.81
ElecMinimize: Iter:  71  F: -1767.001159189522696  |grad|_K:  3.956e-07  alpha:  2.698e-02  linmin: -4.383e-04  t[s]:    364.31
	Linear fluid (dielectric constant: 7.2) occupying 0.821297 of unit cell:	Completed after 2 iterations at t[s]:    365.14
	Linear fluid (dielectric constant: 7.2) occupying 0.821298 of unit cell:	Completed after 0 iterations at t[s]:    365.97
	FillingsUpdate:  mu: -0.083560941  nElectrons: 474.000000
	SubspaceRotationAdjust: set factor to 6.01
ElecMinimize: Iter:  72  F: -1767.001159484314030  |grad|_K:  2.907e-07  alpha:  3.711e-02  linmin: -9.490e-05  t[s]:    367.08
	Linear fluid (dielectric constant: 7.2) occupying 0.821303 of unit cell:	Completed after 1 iterations at t[s]:    367.89
	Linear fluid (dielectric constant: 7.2) occupying 0.821309 of unit cell:	Completed after 1 iterations at t[s]:    368.68
	FillingsUpdate:  mu: -0.083560755  nElectrons: 474.000000
	SubspaceRotationAdjust: set factor to 3.95
ElecMinimize: Iter:  73  F: -1767.001159745440873  |grad|_K:  4.337e-07  alpha:  8.595e-02  linmin:  1.732e-04  t[s]:    369.81
	Linear fluid (dielectric constant: 7.2) occupying 0.821308 of unit cell:	Completed after 4 iterations at t[s]:    370.66
	Linear fluid (dielectric constant: 7.2) occupying 0.821309 of unit cell:	Completed after 2 iterations at t[s]:    371.45
	FillingsUpdate:  mu: -0.083560452  nElectrons: 474.000000
	SubspaceRotationAdjust: set factor to 3.19
	SubspaceRotationAdjust: resetting CG because factor has changed by 0.134802
	Linear fluid (dielectric constant: 7.2) occupying 0.821309 of unit cell:	Completed after 0 iterations at t[s]:    373.01
ElecMinimize: 	State modified externally: resetting search direction.
ElecMinimize: Iter:  74  F: -1767.001159971369134  |grad|_K:  3.184e-07  alpha:  4.086e-02
	Linear fluid (dielectric constant: 7.2) occupying 0.821303 of unit cell:	Completed after 1 iterations at t[s]:    374.93
	Linear fluid (dielectric constant: 7.2) occupying 0.821297 of unit cell:	Completed after 1 iterations at t[s]:    375.72
	FillingsUpdate:  mu: -0.083562349  nElectrons: 474.000000
	SubspaceRotationAdjust: set factor to 1.49
ElecMinimize: Iter:  75  F: -1767.001160285427659  |grad|_K:  2.417e-07  alpha:  8.225e-02  linmin:  4.251e-05  t[s]:    376.89
	Linear fluid (dielectric constant: 7.2) occupying 0.821296 of unit cell:	Completed after 1 iterations at t[s]:    377.69
	Linear fluid (dielectric constant: 7.2) occupying 0.821294 of unit cell:	Completed after 1 iterations at t[s]:    378.49
	FillingsUpdate:  mu: -0.083563796  nElectrons: 474.000000
	SubspaceRotationAdjust: set factor to 1.04
ElecMinimize: Iter:  76  F: -1767.001160582507282  |grad|_K:  1.859e-07  alpha:  1.477e-01  linmin:  1.969e-04  t[s]:    379.59
	Linear fluid (dielectric constant: 7.2) occupying 0.821294 of unit cell:	Completed after 2 iterations at t[s]:    380.42
	Linear fluid (dielectric constant: 7.2) occupying 0.821294 of unit cell:	Completed after 1 iterations at t[s]:    381.20
	FillingsUpdate:  mu: -0.083564043  nElectrons: 474.000000
	SubspaceRotationAdjust: set factor to 1.08
ElecMinimize: Iter:  77  F: -1767.001160815405456  |grad|_K:  1.204e-07  alpha:  2.082e-01  linmin:  1.556e-04  t[s]:    382.32
	Linear fluid (dielectric constant: 7.2) occupying 0.821294 of unit cell:	Completed after 2 iterations at t[s]:    383.15
	Linear fluid (dielectric constant: 7.2) occupying 0.821294 of unit cell:	Completed after 0 iterations at t[s]:    383.93
	FillingsUpdate:  mu: -0.083565140  nElectrons: 474.000000
	SubspaceRotationAdjust: set factor to 1.18
ElecMinimize: Iter:  78  F: -1767.001160926667126  |grad|_K:  1.059e-07  alpha:  2.140e-01  linmin: -9.989e-04  t[s]:    385.07
	Linear fluid (dielectric constant: 7.2) occupying 0.821295 of unit cell:	Completed after 2 iterations at t[s]:    385.88
	Linear fluid (dielectric constant: 7.2) occupying 0.821295 of unit cell:	Completed after 0 iterations at t[s]:    386.70
	FillingsUpdate:  mu: -0.083568282  nElectrons: 474.000000
	SubspaceRotationAdjust: set factor to 1.2
ElecMinimize: Iter:  79  F: -1767.001161061247558  |grad|_K:  9.094e-08  alpha:  2.270e-01  linmin: -1.301e-03  t[s]:    387.81
	Linear fluid (dielectric constant: 7.2) occupying 0.821294 of unit cell:	Completed after 2 iterations at t[s]:    388.63
	Linear fluid (dielectric constant: 7.2) occupying 0.821294 of unit cell:	Completed after 2 iterations at t[s]:    389.43
	FillingsUpdate:  mu: -0.083571658  nElectrons: 474.000000
	SubspaceRotationAdjust: set factor to 1.11
ElecMinimize: Iter:  80  F: -1767.001161260031722  |grad|_K:  1.422e-07  alpha:  5.521e-01  linmin:  6.887e-04  t[s]:    390.58
	Linear fluid (dielectric constant: 7.2) occupying 0.821298 of unit cell:	Completed after 5 iterations at t[s]:    391.42
	Linear fluid (dielectric constant: 7.2) occupying 0.821295 of unit cell:	Completed after 4 iterations at t[s]:    392.25
	FillingsUpdate:  mu: -0.083571984  nElectrons: 474.000000
	SubspaceRotationAdjust: set factor to 1.4
ElecMinimize: Iter:  81  F: -1767.001161310646239  |grad|_K:  1.306e-07  alpha:  1.088e-01  linmin:  5.273e-05  t[s]:    393.45
	Linear fluid (dielectric constant: 7.2) occupying 0.821296 of unit cell:	Completed after 2 iterations at t[s]:    394.26
	Linear fluid (dielectric constant: 7.2) occupying 0.821296 of unit cell:	Completed after 0 iterations at t[s]:    395.04
	FillingsUpdate:  mu: -0.083571225  nElectrons: 474.000000
	SubspaceRotationAdjust: set factor to 1.49
ElecMinimize: Iter:  82  F: -1767.001161372081242  |grad|_K:  9.008e-08  alpha:  9.920e-02  linmin:  7.997e-07  t[s]:    396.14
	Linear fluid (dielectric constant: 7.2) occupying 0.821296 of unit cell:	Completed after 0 iterations at t[s]:    396.95
	Linear fluid (dielectric constant: 7.2) occupying 0.821296 of unit cell:	Completed after 0 iterations at t[s]:    397.73
	FillingsUpdate:  mu: -0.083571303  nElectrons: 474.000000
	SubspaceRotationAdjust: set factor to 1.91
ElecMinimize: Iter:  83  F: -1767.001161398964769  |grad|_K:  7.316e-08  alpha:  9.224e-02  linmin: -4.091e-04  t[s]:    398.86
	Linear fluid (dielectric constant: 7.2) occupying 0.821295 of unit cell:	Completed after 1 iterations at t[s]:    399.65
	Linear fluid (dielectric constant: 7.2) occupying 0.821295 of unit cell:	Completed after 0 iterations at t[s]:    400.41
	FillingsUpdate:  mu: -0.083571740  nElectrons: 474.000000
	SubspaceRotationAdjust: set factor to 2.22
ElecMinimize: Iter:  84  F: -1767.001161417895446  |grad|_K:  6.082e-08  alpha:  7.572e-02  linmin: -7.282e-04  t[s]:    401.57
	Linear fluid (dielectric constant: 7.2) occupying 0.821294 of unit cell:	Completed after 0 iterations at t[s]:    402.39
	Linear fluid (dielectric constant: 7.2) occupying 0.821294 of unit cell:	Completed after 0 iterations at t[s]:    403.15
	FillingsUpdate:  mu: -0.083572280  nElectrons: 474.000000
	SubspaceRotationAdjust: set factor to 3.21
ElecMinimize: Iter:  85  F: -1767.001161437252449  |grad|_K:  4.229e-08  alpha:  9.842e-02  linmin: -3.907e-04  t[s]:    404.30
	Linear fluid (dielectric constant: 7.2) occupying 0.821294 of unit cell:	Completed after 1 iterations at t[s]:    405.10
	Linear fluid (dielectric constant: 7.2) occupying 0.821294 of unit cell:	Completed after 0 iterations at t[s]:    405.87
	FillingsUpdate:  mu: -0.083572369  nElectrons: 474.000000
	SubspaceRotationAdjust: set factor to 3.1
ElecMinimize: Iter:  86  F: -1767.001161448769608  |grad|_K:  4.144e-08  alpha:  1.239e-01  linmin:  6.577e-05  t[s]:    407.00
	Linear fluid (dielectric constant: 7.2) occupying 0.821293 of unit cell:	Completed after 0 iterations at t[s]:    407.79
	Linear fluid (dielectric constant: 7.2) occupying 0.821293 of unit cell:	Completed after 0 iterations at t[s]:    408.57
ElecMinimize: 	Step increased F by 1.427770e-08, reducing alpha to 3.304772e-02.
	Linear fluid (dielectric constant: 7.2) occupying 0.821294 of unit cell:	Completed after 1 iterations at t[s]:    410.39
	FillingsUpdate:  mu: -0.083572260  nElectrons: 474.000000
	SubspaceRotationAdjust: set factor to 4.09
ElecMinimize: Iter:  87  F: -1767.001161453825489  |grad|_K:  3.954e-08  alpha:  3.305e-02  linmin: -2.901e-04  t[s]:    411.52
	Linear fluid (dielectric constant: 7.2) occupying 0.821294 of unit cell:	Completed after 0 iterations at t[s]:    412.30
ElecMinimize: 	Wrong curvature in test step, increasing alphaT to 9.914315e-02.
	Linear fluid (dielectric constant: 7.2) occupying 0.821294 of unit cell:	Completed after 0 iterations at t[s]:    412.85
	FillingsUpdate:  mu: -0.083572185  nElectrons: 474.000000
	SubspaceRotationAdjust: set factor to 5.33
ElecMinimize: Iter:  88  F: -1767.001161461459787  |grad|_K:  3.615e-08  alpha: -5.054e-02  linmin: -5.429e-04  t[s]:    413.97
ElecMinimize: Converged (|Delta F|<1.000000e-08 for 2 iters).
Setting wave functions to eigenvectors of Hamiltonian
Single-point solvation energy estimate, DeltaF = -0.078881640400596

# Ionic positions in cartesian coordinates:
ion Ti   0.000000174975000  -0.000000174975000   2.000000000000000 0
ion Ti   4.340445422775000   4.340445072825000   4.795024053800001 0
ion Ti   0.000000174975000   8.680909217924999   2.000000000000000 0
ion Ti   4.340445422775000  13.021354465725000   4.795024053800001 0
ion Ti   0.000000174975000  17.361818610825001   2.000000000000000 0
ion Ti   4.340445422775000  21.702263858624999   4.795024053800001 0
ion Ti   8.680909567874998  -0.000000174975000   2.000000000000000 0
ion Ti  13.021354815675002   4.340445072825000   4.795024053800001 0
ion Ti   8.680909567874998   8.680909217924999   2.000000000000000 0
ion Ti  13.021354815675002  13.021354465725000   4.795024053800001 0
ion Ti   8.680909567874998  17.361818610825001   2.000000000000000 0
ion Ti  13.021364264325003  21.702263858624999   4.795024053800001 0
ion Ti  17.361818960775000  -0.000000174975000   2.000000000000000 0
ion Ti  21.702264208574999   4.340445072825000   4.795024053800001 0
ion Ti  17.361818960775000   8.680909217924999   2.000000000000000 0
ion Ti  21.702264208574999  13.021363914375000   4.795024053800001 0
ion Ti  17.361818960775000  17.361818610825001   2.000000000000000 0
ion Ti  21.702264208574999  21.702263858624999   4.795024053800001 0
ion O   2.650289808075000   2.650289458125000   2.000000000000000 0
ion O   6.030619934775000   6.030619584825001   2.000000000000000 0
ion O   1.690174686975000   6.990734705924999   4.795024053800001 0
ion O   6.990735055874999   1.690174337025000   4.795024053800001 0
ion O   2.650289808075000  11.331198851025000   2.000000000000000 0
ion O   6.030619934775000  14.711528977725004   2.000000000000000 0
ion O   1.690174686975000  15.671644098825000   4.795024053800001 0
ion O   6.990735055874999  10.371083729925001   4.795024053800001 0
ion O   2.650289808075000  20.012108243924999   2.000000000000000 0
ion O   6.030619934775000  23.392438370625001   2.000000000000000 0
ion O   1.690174686975000  24.352553491725004   4.795024053800001 0
ion O   6.990735055874999  19.051993122824996   4.795024053800001 0
ion O  11.331199200975000   2.650289458125000   2.000000000000000 0
ion O  14.711529327675001   6.030619584825001   2.000000000000000 0
ion O  10.371084079875001   6.990734705924999   4.795024053800001 0
ion O  15.671644448774998   1.690174337025000   4.795024053800001 0
ion O  11.331199200975000  11.331198851025000   2.000000000000000 0
ion O  14.711529327675001  14.711528977725004   2.000000000000000 0
ion O  10.371084079875001  15.671644098825000   4.795024053800001 0
ion O  15.671644448774998  10.371083729925001   4.795024053800001 0
ion O  11.331199200975000  20.012108243924999   2.000000000000000 0
ion O  14.711529327675001  23.392438370625001   2.000000000000000 0
ion O  10.371084079875001  24.352553491725004   4.795024053800001 0
ion O  15.671644448774998  19.051993122824996   4.795024053800001 0
ion O  20.012108593874995   2.650289458125000   2.000000000000000 0
ion O  23.392438720575004   6.030619584825001   2.000000000000000 0
ion O  19.051993472774999   6.990734705924999   4.795024053800001 0
ion O  24.352553841675000   1.690174337025000   4.795024053800001 0
ion O  20.012108593874995  11.331198851025000   2.000000000000000 0
ion O  23.392438720575004  14.711528977725004   2.000000000000000 0
ion O  19.051993472774999  15.671644098825000   4.795024053800001 0
ion O  24.352553841675000  10.371083729925001   4.795024053800001 0
ion O  20.012108593874995  20.012108243924999   2.000000000000000 0
ion O  23.392438720575004  23.392438370625001   2.000000000000000 0
ion O  19.051993472774999  24.352553491725004   4.795024053800001 0
ion O  24.352553841675000  19.051993122824996   4.795024053800001 0
ion S  22.730643224003739  12.987306037576749   9.550470690664993 1
ion S  20.876160957448388  15.538214670719407  11.937946501741772 1
ion S  22.537805696696079  19.185780181604603  11.939203228599107 1
ion S  20.681081326641170  21.739272709662604   9.551593110598700 1
ion Na  17.632735434339001  17.621577401470603   8.235569586366989 1
ion Na  25.779354121167781  17.109578339037519   8.236791612539783 1

# Forces in Cartesian coordinates:
force Ti  -0.004519516715058  -0.001374945510766   0.129949855115946 0
force Ti  -0.001580389239123  -0.000072450719264  -0.129434767631490 0
force Ti  -0.003469761593209  -0.000743073348975   0.131703530954138 0
[...]
   Eewald =     9611.4146020689586294
       EH =    11107.2645119289136346
     Eloc =   -22755.9243660867505241
      Enl =       41.7186144915287684
      Exc =     -322.2168553913843994
 Exc_core =       32.9823462710702842
       KE =      517.9912077690063370
-------------------------------------
     Etot =    -1766.9237548885835167
       TS =        0.0774201309754698
-------------------------------------
        F =    -1767.0011750195590139

IonicMinimize: Iter:   3  F: -1767.001175019559014  |grad|_K:  1.118e-04  alpha:  1.390e+01  linmin: -2.521e-04  t[s]:    661.60

#--- Lowdin population analysis ---
# oxidation-state Ti +1.618 +1.627 +1.616 +1.623 +1.642 +1.607 +1.632 +1.627 +1.632 +1.607 +1.634 +1.623 +1.616 +1.652 +1.618 +1.566 +1.642 +1.565
# oxidation-state O -0.763 -0.761 -0.756 -0.761 -0.760 -0.760 -0.825 -0.759 -0.762 -0.757 -0.753 -0.767 -0.761 -0.762 -0.761 -0.756 -0.757 -0.762 -0.767 -0.754 -0.760 -0.760 -0.759 -0.825 -0.763 -0.762 -0.747 -0.747 -0.779 -0.773 -0.811 -0.730 -0.773 -0.779 -0.730 -0.811
# oxidation-state S -0.453 -0.019 -0.019 -0.453
# oxidation-state Na +0.737 +0.737


-------- Electronic minimization -----------
	Linear fluid (dielectric constant: 7.2) occupying 0.821281 of unit cell:	Completed after 3 iterations at t[s]:    662.61
	FillingsUpdate:  mu: -0.083502050  nElectrons: 474.000000
ElecMinimize: Iter:   0  F: -1767.001167939662309  |grad|_K:  5.237e-07  alpha:  1.000e+00
	Linear fluid (dielectric constant: 7.2) occupying 0.821275 of unit cell:	Completed after 4 iterations at t[s]:    664.67
	Linear fluid (dielectric constant: 7.2) occupying 0.821278 of unit cell:	Completed after 2 iterations at t[s]:    665.49
	FillingsUpdate:  mu: -0.083500160  nElectrons: 474.000000
	SubspaceRotationAdjust: set factor to 0.482
ElecMinimize: Iter:   1  F: -1767.001173927361151  |grad|_K:  3.429e-07  alpha:  5.676e-01  linmin: -1.605e-05  t[s]:    666.62
	Linear fluid (dielectric constant: 7.2) occupying 0.821289 of unit cell:	Completed after 3 iterations at t[s]:    667.43
	Linear fluid (dielectric constant: 7.2) occupying 0.821283 of unit cell:	Completed after 2 iterations at t[s]:    668.24
	FillingsUpdate:  mu: -0.083493764  nElectrons: 474.000000
	SubspaceRotationAdjust: set factor to 0.436
ElecMinimize: Iter:   2  F: -1767.001175048085997  |grad|_K:  2.090e-07  alpha:  2.554e-01  linmin:  1.245e-04  t[s]:    669.37
	Linear fluid (dielectric constant: 7.2) occupying 0.821281 of unit cell:	Completed after 1 iterations at t[s]:    670.16
	Linear fluid (dielectric constant: 7.2) occupying 0.821280 of unit cell:	Completed after 0 iterations at t[s]:    670.91
	FillingsUpdate:  mu: -0.083490451  nElectrons: 474.000000
	SubspaceRotationAdjust: set factor to 0.434
ElecMinimize: Iter:   3  F: -1767.001175579356413  |grad|_K:  1.176e-07  alpha:  3.227e-01  linmin: -8.031e-05  t[s]:    672.02
	Linear fluid (dielectric constant: 7.2) occupying 0.821281 of unit cell:	Completed after 1 iterations at t[s]:    672.83
	Linear fluid (dielectric constant: 7.2) occupying 0.821281 of unit cell:	Completed after 1 iterations at t[s]:    673.61
	FillingsUpdate:  mu: -0.083493117  nElectrons: 474.000000
	SubspaceRotationAdjust: set factor to 0.419
ElecMinimize: Iter:   4  F: -1767.001175865428422  |grad|_K:  9.190e-08  alpha:  5.588e-01  linmin:  9.370e-04  t[s]:    674.75
	Linear fluid (dielectric constant: 7.2) occupying 0.821280 of unit cell:	Completed after 2 iterations at t[s]:    675.59
	Linear fluid (dielectric constant: 7.2) occupying 0.821281 of unit cell:	Completed after 1 iterations at t[s]:    676.39
	FillingsUpdate:  mu: -0.083491467  nElectrons: 474.000000
	SubspaceRotationAdjust: set factor to 0.452
ElecMinimize: Iter:   5  F: -1767.001175946339117  |grad|_K:  4.693e-08  alpha:  3.020e-01  linmin: -9.847e-04  t[s]:    677.53
	Linear fluid (dielectric constant: 7.2) occupying 0.821281 of unit cell:	Completed after 0 iterations at t[s]:    678.33
	Linear fluid (dielectric constant: 7.2) occupying 0.821281 of unit cell:	Completed after 1 iterations at t[s]:    679.12
	FillingsUpdate:  mu: -0.083490399  nElectrons: 474.000000
	SubspaceRotationAdjust: set factor to 0.441
ElecMinimize: Iter:   6  F: -1767.001175984203201  |grad|_K:  7.102e-08  alpha:  8.058e-01  linmin:  3.130e-03  t[s]:    680.23
	Linear fluid (dielectric constant: 7.2) occupying 0.821280 of unit cell:	Completed after 1 iterations at t[s]:    681.05
	Linear fluid (dielectric constant: 7.2) occupying 0.821281 of unit cell:	Completed after 1 iterations at t[s]:    681.89
	FillingsUpdate:  mu: -0.083491633  nElectrons: 474.000000
	SubspaceRotationAdjust: set factor to 0.498
ElecMinimize: Iter:   7  F: -1767.001175984874408  |grad|_K:  6.788e-08  alpha:  6.101e-02  linmin: -1.454e-05  t[s]:    682.99
	Linear fluid (dielectric constant: 7.2) occupying 0.821281 of unit cell:	Completed after 0 iterations at t[s]:    683.78
	Linear fluid (dielectric constant: 7.2) occupying 0.821281 of unit cell:	Completed after 0 iterations at t[s]:    684.52
	FillingsUpdate:  mu: -0.083491461  nElectrons: 474.000000
	SubspaceRotationAdjust: set factor to 0.576
ElecMinimize: Iter:   8  F: -1767.001175998794679  |grad|_K:  5.529e-08  alpha:  7.190e-02  linmin: -1.895e-03  t[s]:    685.62
	Linear fluid (dielectric constant: 7.2) occupying 0.821280 of unit cell:	Completed after 0 iterations at t[s]:    686.42
	Linear fluid (dielectric constant: 7.2) occupying 0.821281 of unit cell:	Completed after 0 iterations at t[s]:    687.18
	FillingsUpdate:  mu: -0.083491871  nElectrons: 474.000000
	SubspaceRotationAdjust: set factor to 0.618
ElecMinimize: Iter:   9  F: -1767.001176003823275  |grad|_K:  3.728e-08  alpha:  4.501e-02  linmin: -2.095e-03  t[s]:    688.30
	Linear fluid (dielectric constant: 7.2) occupying 0.821280 of unit cell:	Completed after 0 iterations at t[s]:    689.08
	Linear fluid (dielectric constant: 7.2) occupying 0.821280 of unit cell:	Completed after 0 iterations at t[s]:    689.84
	FillingsUpdate:  mu: -0.083492428  nElectrons: 474.000000
	SubspaceRotationAdjust: set factor to 0.661
ElecMinimize: Iter:  10  F: -1767.001176009815481  |grad|_K:  3.001e-08  alpha:  5.781e-02  linmin: -3.361e-03  t[s]:    690.96
ElecMinimize: Converged (|Delta F|<1.000000e-08 for 2 iters).
Setting wave functions to eigenvectors of Hamiltonian

-------- Electronic minimization -----------
	Linear fluid (dielectric constant: 7.2) occupying 0.821285 of unit cell:	Completed after 2 iterations at t[s]:    691.99
	FillingsUpdate:  mu: -0.083489656  nElectrons: 474.000000
ElecMinimize: Iter:   0  F: -1767.001175308542770  |grad|_K:  1.866e-07  alpha:  1.000e+00
	Linear fluid (dielectric constant: 7.2) occupying 0.821282 of unit cell:	Completed after 2 iterations at t[s]:    694.09
	Linear fluid (dielectric constant: 7.2) occupying 0.821283 of unit cell:	Completed after 1 iterations at t[s]:    694.86
	FillingsUpdate:  mu: -0.083493763  nElectrons: 474.000000
	SubspaceRotationAdjust: set factor to 0.629
ElecMinimize: Iter:   1  F: -1767.001176065631853  |grad|_K:  1.084e-07  alpha:  5.659e-01  linmin:  3.507e-05  t[s]:    695.97
	Linear fluid (dielectric constant: 7.2) occupying 0.821285 of unit cell:	Completed after 2 iterations at t[s]:    696.84
	Linear fluid (dielectric constant: 7.2) occupying 0.821284 of unit cell:	Completed after 1 iterations at t[s]:    697.62
	FillingsUpdate:  mu: -0.083494153  nElectrons: 474.000000
	SubspaceRotationAdjust: set factor to 0.511
ElecMinimize: Iter:   2  F: -1767.001176206630362  |grad|_K:  6.718e-08  alpha:  3.131e-01  linmin:  4.882e-05  t[s]:    698.73
	Linear fluid (dielectric constant: 7.2) occupying 0.821283 of unit cell:	Completed after 0 iterations at t[s]:    699.53
	Linear fluid (dielectric constant: 7.2) occupying 0.821283 of unit cell:	Completed after 0 iterations at t[s]:    700.29
	FillingsUpdate:  mu: -0.083494842  nElectrons: 474.000000
	SubspaceRotationAdjust: set factor to 0.593
ElecMinimize: Iter:   3  F: -1767.001176263824846  |grad|_K:  3.902e-08  alpha:  3.307e-01  linmin: -6.172e-04  t[s]:    701.42
	Linear fluid (dielectric constant: 7.2) occupying 0.821283 of unit cell:	Completed after 1 iterations at t[s]:    702.23
	Linear fluid (dielectric constant: 7.2) occupying 0.821284 of unit cell:	Completed after 0 iterations at t[s]:    703.00
	FillingsUpdate:  mu: -0.083494102  nElectrons: 474.000000
	SubspaceRotationAdjust: set factor to 0.56
ElecMinimize: Iter:   4  F: -1767.001176291008960  |grad|_K:  2.901e-08  alpha:  4.239e-01  linmin:  2.965e-04  t[s]:    704.10
	Linear fluid (dielectric constant: 7.2) occupying 0.821283 of unit cell:	Completed after 0 iterations at t[s]:    704.91
	Linear fluid (dielectric constant: 7.2) occupying 0.821283 of unit cell:	Completed after 0 iterations at t[s]:    705.65
	FillingsUpdate:  mu: -0.083495047  nElectrons: 474.000000
	SubspaceRotationAdjust: set factor to 0.554
ElecMinimize: Iter:   5  F: -1767.001176297942266  |grad|_K:  2.032e-08  alpha:  2.370e-01  linmin: -4.801e-04  t[s]:    706.76
	Linear fluid (dielectric constant: 7.2) occupying 0.821283 of unit cell:	Completed after 0 iterations at t[s]:    707.56
ElecMinimize: 	Predicted alpha/alphaT>3.000000, increasing alphaT to 7.110631e-01.
	Linear fluid (dielectric constant: 7.2) occupying 0.821283 of unit cell:	Completed after 0 iterations at t[s]:    708.34
	Linear fluid (dielectric constant: 7.2) occupying 0.821283 of unit cell:	Completed after 0 iterations at t[s]:    709.15
	FillingsUpdate:  mu: -0.083493659  nElectrons: 474.000000
	SubspaceRotationAdjust: set factor to 0.465
ElecMinimize: Iter:   6  F: -1767.001176307105652  |grad|_K:  2.588e-08  alpha:  4.232e-01  linmin:  2.092e-03  t[s]:    710.26
ElecMinimize: Converged (|Delta F|<1.000000e-08 for 2 iters).
Setting wave functions to eigenvectors of Hamiltonian

# Ionic positions in cartesian coordinates:
ion Ti   0.000000174975000  -0.000000174975000   2.000000000000000 0
ion Ti   4.340445422775000   4.340445072825000   4.795024053800001 0
ion Ti   0.000000174975000   8.680909217924999   2.000000000000000 0
ion Ti   4.340445422775000  13.021354465725000   4.795024053800001 0
ion Ti   0.000000174975000  17.361818610825001   2.000000000000000 0
ion Ti   4.340445422775000  21.702263858624999   4.795024053800001 0
ion Ti   8.680909567874998  -0.000000174975000   2.000000000000000 0
ion Ti  13.021354815675002   4.340445072825000   4.795024053800001 0
ion Ti   8.680909567874998   8.680909217924999   2.000000000000000 0
ion Ti  13.021354815675002  13.021354465725000   4.795024053800001 0
ion Ti   8.680909567874998  17.361818610825001   2.000000000000000 0
ion Ti  13.021364264325003  21.702263858624999   4.795024053800001 0
ion Ti  17.361818960775000  -0.000000174975000   2.000000000000000 0
ion Ti  21.702264208574999   4.340445072825000   4.795024053800001 0
ion Ti  17.361818960775000   8.680909217924999   2.000000000000000 0
ion Ti  21.702264208574999  13.021363914375000   4.795024053800001 0
ion Ti  17.361818960775000  17.361818610825001   2.000000000000000 0
ion Ti  21.702264208574999  21.702263858624999   4.795024053800001 0
ion O   2.650289808075000   2.650289458125000   2.000000000000000 0
ion O   6.030619934775000   6.030619584825001   2.000000000000000 0
ion O   1.690174686975000   6.990734705924999   4.795024053800001 0
ion O   6.990735055874999   1.690174337025000   4.795024053800001 0
ion O   2.650289808075000  11.331198851025000   2.000000000000000 0
ion O   6.030619934775000  14.711528977725004   2.000000000000000 0
ion O   1.690174686975000  15.671644098825000   4.795024053800001 0
ion O   6.990735055874999  10.371083729925001   4.795024053800001 0
ion O   2.650289808075000  20.012108243924999   2.000000000000000 0
ion O   6.030619934775000  23.392438370625001   2.000000000000000 0
ion O   1.690174686975000  24.352553491725004   4.795024053800001 0
ion O   6.990735055874999  19.051993122824996   4.795024053800001 0
ion O  11.331199200975000   2.650289458125000   2.000000000000000 0
ion O  14.711529327675001   6.030619584825001   2.000000000000000 0
ion O  10.371084079875001   6.990734705924999   4.795024053800001 0
ion O  15.671644448774998   1.690174337025000   4.795024053800001 0
ion O  11.331199200975000  11.331198851025000   2.000000000000000 0
ion O  14.711529327675001  14.711528977725004   2.000000000000000 0
ion O  10.371084079875001  15.671644098825000   4.795024053800001 0
ion O  15.671644448774998  10.371083729925001   4.795024053800001 0
ion O  11.331199200975000  20.012108243924999   2.000000000000000 0
ion O  14.711529327675001  23.392438370625001   2.000000000000000 0
ion O  10.371084079875001  24.352553491725004   4.795024053800001 0
ion O  15.671644448774998  19.051993122824996   4.795024053800001 0
ion O  20.012108593874995   2.650289458125000   2.000000000000000 0
ion O  23.392438720575004   6.030619584825001   2.000000000000000 0
ion O  19.051993472774999   6.990734705924999   4.795024053800001 0
ion O  24.352553841675000   1.690174337025000   4.795024053800001 0
ion O  20.012108593874995  11.331198851025000   2.000000000000000 0
ion O  23.392438720575004  14.711528977725004   2.000000000000000 0
ion O  19.051993472774999  15.671644098825000   4.795024053800001 0
ion O  24.352553841675000  10.371083729925001   4.795024053800001 0
ion O  20.012108593874995  20.012108243924999   2.000000000000000 0
ion O  23.392438720575004  23.392438370625001   2.000000000000000 0
ion O  19.051993472774999  24.352553491725004   4.795024053800001 0
ion O  24.352553841675000  19.051993122824996   4.795024053800001 0
ion S  22.724919555832940  13.002576887091772   9.553395980799618 1
ion S  20.873746136276100  15.543306267480828  11.952831235666251 1
ion S  22.540003132545031  19.183381879393341  11.950791857567706 1
ion S  20.684396204546854  21.723376302211790   9.554825174641719 1
ion Na  17.622917770001425  17.607180172520380   8.242984243055568 1
ion Na  25.788481214510188  17.121929786452210   8.243658459559370 1

# Forces in Cartesian coordinates:
force Ti  -0.004502767732659  -0.001346697831018   0.129923812653879 0
force Ti  -0.001565319904495  -0.000082250620892  -0.129499131076116 0
force Ti  -0.003453710100616  -0.000751322170572   0.131688249457942 0
force Ti   0.007370449160543  -0.010615251199778  -0.136241666949039 0
force Ti  -0.005344544866576   0.000191140454116   0.116130077798032 0
force Ti   0.002132809246790   0.006230689396689  -0.133910451729470 0
force Ti  -0.000278307616903   0.001661690904664   0.129761235050581 0
force Ti   0.001267793389263  -0.000216836329731  -0.129472731629648 0
force Ti  -0.000109020074386  -0.001977783745755   0.129853645289702 0
force Ti  -0.002504085200197  -0.006658874594408  -0.133935237373660 0
force Ti  -0.000255071151792  -0.000347409681843   0.129216530825499 0
force Ti  -0.007750233727722   0.010142224627956  -0.136100218964433 0
force Ti   0.003244905348391   0.000635432533219   0.131679218109858 0
force Ti  -0.000279887788705  -0.000194584747736  -0.128866399883881 0
force Ti   0.004278942264446   0.001220889812946   0.130099973069445 0
force Ti   0.003940503350527  -0.008344499516355  -0.102088114307037 0
force Ti   0.004944976156998  -0.000747548038669   0.116195943299041 0
force Ti  -0.004322859248663   0.008071999527100  -0.102065550837437 0
force O  -0.017351533228472  -0.017839004659855   0.016040089096710 0
force O   0.019229328880892   0.019407622377046   0.015820498075606 0
force O   0.019630176593241  -0.019061727215886  -0.018110226330483 0
force O  -0.018244441810669   0.018339585450899  -0.017812034513745 0
force O  -0.016311242437328  -0.015586507728233   0.017475009750924 0
force O   0.017461187461727   0.018436923427079   0.017310753003210 0
force O   0.020852671126761  -0.017571346711195  -0.009450979312974 0
force O  -0.020444867099213   0.020974414098190  -0.016151381252982 0
force O  -0.019342143784736  -0.020257868342431   0.016969906018310 0
force O   0.018171843024110   0.017581002839614   0.016460226296701 0
force O   0.020930526433968  -0.021100677019285  -0.017030936685205 0
force O  -0.019603150285488   0.018388849792467  -0.015973928551632 0
force O  -0.019154357770171  -0.019290296508804   0.015802549642605 0
force O   0.017499934411320   0.017996416579439   0.016098532515921 0
force O   0.018188396297387  -0.018236865410492  -0.017852093941346 0
force O  -0.019596055595185   0.019109587850742  -0.018120468665070 0
force O  -0.018183132925130  -0.017679926865723   0.016480997189258 0
force O   0.019467174705243   0.020344669218622   0.017041835216418 0
force O   0.019614590986902  -0.018366385083073  -0.016009103613066 0
force O  -0.020728007274112   0.020867994699354  -0.017151645749279 0
force O  -0.017412148534540  -0.018380240646195   0.017283637220011 0
force O   0.016386322860044   0.015536756170927   0.017493713070419 0
force O   0.020543789172773  -0.021114076416250  -0.016099991815880 0
force O  -0.020743175886378   0.017538716531535  -0.009461830904876 0
force O  -0.019538969292358  -0.019139735678304   0.015200914056795 0
force O   0.019520527437156   0.019239310894072   0.015206617489628 0
force O   0.017329096384238  -0.018467356716035  -0.020824224162307 0
force O  -0.017568782894620   0.018671080192847  -0.020694443751715 0
force O  -0.025643722302962  -0.024536409250015   0.009300375340430 0
force O   0.025582918492126   0.025830907502256   0.011569970237476 0
force O   0.011013986908453  -0.012577716740769  -0.017386288197678 0
force O  -0.013550203914006   0.014094106372691  -0.023933414652736 0
force O  -0.025652497173981  -0.025818096379342   0.011565746779124 0
force O   0.025507728619074   0.024384169324627   0.009266735095417 0
force O   0.013497834366987  -0.014163384380724  -0.023952724122681 0
force O  -0.011155713001073   0.012660398881087  -0.017351542287825 0
force S   0.000061890592331   0.000003380090417   0.000013605667321 1
force S   0.000034614451807   0.000073699150745   0.000061157463988 1
force S   0.000015250914086  -0.000108466018563   0.000124815402147 1
force S  -0.000122215339321   0.000065408415864  -0.000053653688447 1
force Na   0.000006674015377  -0.000068005130288   0.000019074979237 1
force Na  -0.000022011677443   0.000040161137401   0.000017328255699 1

# Energy components:
   A_diel =       -0.1538552771409226
   Eewald =     9611.2411321418549051
       EH =    11107.0839539778171456
     Eloc =   -22755.5710927516520314
      Enl =       41.7187999638673830
      Exc =     -322.2172313823971308
 Exc_core =       32.9823462748675809
       KE =      517.9921696489661826
-------------------------------------
     Etot =    -1766.9237774038172120
       TS =        0.0773989032883354
-------------------------------------
        F =    -1767.0011763071056521


Dumping 'Na2S4@TiO2-glyme.fillings' ... done
Dumping 'Na2S4@TiO2-glyme.wfns' ... done
Dumping 'Na2S4@TiO2-glyme.fluidState' ... done
Dumping 'Na2S4@TiO2-glyme.ionpos' ... done
Dumping 'Na2S4@TiO2-glyme.eigenvals' ... done
IonicMinimize: Iter:   4  F: -1767.001176307105652  |grad|_K:  6.302e-05  alpha:  9.046e+00  linmin: -8.637e-05  t[s]:    713.26
IonicMinimize: Converged (|grad|_K<1.000000e-04).

#--- Lowdin population analysis ---
# oxidation-state Ti +1.618 +1.627 +1.616 +1.623 +1.642 +1.607 +1.632 +1.627 +1.632 +1.607 +1.634 +1.623 +1.616 +1.652 +1.618 +1.566 +1.642 +1.566
# oxidation-state O -0.763 -0.761 -0.756 -0.761 -0.760 -0.760 -0.825 -0.759 -0.762 -0.757 -0.753 -0.767 -0.761 -0.762 -0.761 -0.756 -0.757 -0.762 -0.767 -0.754 -0.760 -0.760 -0.759 -0.825 -0.763 -0.762 -0.747 -0.747 -0.779 -0.773 -0.812 -0.730 -0.773 -0.779 -0.730 -0.811
# oxidation-state S -0.453 -0.019 -0.019 -0.453
# oxidation-state Na +0.737 +0.737


Dumping 'Na2S4@TiO2-glyme.fillings' ... done
Dumping 'Na2S4@TiO2-glyme.wfns' ... done
Dumping 'Na2S4@TiO2-glyme.fluidState' ... done
Dumping 'Na2S4@TiO2-glyme.ionpos' ... done
Dumping 'Na2S4@TiO2-glyme.eigenvals' ... done
End date and time: Wed Sep 25 09:58:56 2024  (Duration: 0-0:11:55.29)
Done!
