
*************** JDFTx 1.7.0  ***************

Start date and time: Tue Apr 16 16:23:45 2024
Executable jdftx with command-line: -i Na2S@TiO2.in -o Na2S@TiO2.out
Running on hosts (process indices):  rqtUbuntuMac (0)
Divided in process groups (process indices):  0 (0)
Resource initialization completed at t[s]:      0.00
Run totals: 1 processes, 8 threads, 0 GPUs


Input parsed successfully to the following command list (including defaults):

basis kpoint-dependent
coords-type Cartesian
core-overlap-check vector
coulomb-interaction Slab 001
coulomb-truncation-embed 0 0 1
davidson-band-ratio 1.1
dump End State
dump-name Na2S@TiO2.$VAR
elec-cutoff 20 100
elec-eigen-algo Davidson
elec-ex-corr gga-PBE
elec-smearing Fermi 0.01
electronic-minimize  \
	dirUpdateScheme      FletcherReeves \
	linminMethod         DirUpdateRecommended \
	nIterations          100 \
	history              15 \
	knormThreshold       0 \
	energyDiffThreshold  1e-08 \
	nEnergyDiff          2 \
	alphaTstart          1 \
	alphaTmin            1e-10 \
	updateTestStepSize   yes \
	alphaTreduceFactor   0.1 \
	alphaTincreaseFactor 3 \
	nAlphaAdjustMax      3 \
	wolfeEnergy          0.0001 \
	wolfeGradient        0.9 \
	fdTest               no
electronic-scf  \
	nIterations	50 \
	energyDiffThreshold	1e-08 \
	residualThreshold	1e-07 \
	mixFraction	0.5 \
	qMetric	0.8 \
	history	10 \
	nEigSteps	2 \
	eigDiffThreshold	1e-08 \
	mixedVariable	Density \
	qKerker	0.8 \
	qKappa	-1 \
	verbose	no \
	mixFractionMag	1.5
exchange-regularization WignerSeitzTruncated
fluid None
fluid-ex-corr lda-TF lda-PZ
fluid-gummel-loop 10 1.000000e-05
fluid-minimize  \
	dirUpdateScheme      PolakRibiere \
	linminMethod         DirUpdateRecommended \
	nIterations          100 \
	history              15 \
	knormThreshold       0 \
	energyDiffThreshold  0 \
	nEnergyDiff          2 \
	alphaTstart          1 \
	alphaTmin            1e-10 \
	updateTestStepSize   yes \
	alphaTreduceFactor   0.1 \
	alphaTincreaseFactor 3 \
	nAlphaAdjustMax      3 \
	wolfeEnergy          0.0001 \
	wolfeGradient        0.9 \
	fdTest               no
fluid-solvent H2O 55.338 ScalarEOS \
	epsBulk 78.4 \
	pMol 0.92466 \
	epsInf 1.77 \
	Pvap 1.06736e-10 \
	sigmaBulk 4.62e-05 \
	Rvdw 2.61727 \
	Res 1.42 \
	tauNuc 343133 \
	poleEl 15 7 1
forces-output-coords Positions
ion Ti   0.000000000000000   0.000000000000000   2.000000000000000 0
ion Ti   4.340445247800000   4.340445247800000   4.795024053800001 0
ion Ti   0.000000000000000   8.680909392899999   2.000000000000000 0
ion Ti   4.340445247800000  13.021354640700002   4.795024053800001 0
ion Ti   0.000000000000000  17.361818785799997   2.000000000000000 0
ion Ti   4.340445247800000  21.702264033599999   4.795024053800001 0
ion Ti   0.000000000000000  26.042728178699999   2.000000000000000 0
ion Ti   4.340464145100000  30.383173426500001   4.795024053800001 0
ion Ti   8.680909392899999   0.000000000000000   2.000000000000000 0
ion Ti  13.021354640700002   4.340445247800000   4.795024053800001 0
ion Ti   8.680909392899999   8.680909392899999   2.000000000000000 0
ion Ti  13.021354640700002  13.021354640700002   4.795024053800001 0
ion Ti   8.680909392899999  17.361818785799997   2.000000000000000 0
ion Ti  13.021373538000002  21.702264033599999   4.795024053800001 0
ion Ti   8.680909392899999  26.042728178699999   2.000000000000000 0
ion Ti  13.021373538000002  30.383173426500001   4.795024053800001 0
ion Ti  17.361818785799997   0.000000000000000   2.000000000000000 0
ion Ti  21.702264033599999   4.340445247800000   4.795024053800001 0
ion Ti  17.361818785799997   8.680909392899999   2.000000000000000 0
ion Ti  21.702264033599999  13.021354640700002   4.795024053800001 0
ion Ti  17.361818785799997  17.361818785799997   2.000000000000000 0
ion Ti  21.702264033599999  21.702264033599999   4.795024053800001 0
ion Ti  17.361818785799997  26.042728178699999   2.000000000000000 0
ion Ti  21.702264033599999  30.383173426500001   4.795024053800001 0
ion Ti  26.042728178699999   0.000000000000000   2.000000000000000 0
ion Ti  30.383173426500001   4.340445247800000   4.795024053800001 0
ion Ti  26.042728178699999   8.680909392899999   2.000000000000000 0
ion Ti  30.383173426500001  13.021354640700002   4.795024053800001 0
ion Ti  26.042728178699999  17.361818785799997   2.000000000000000 0
ion Ti  30.383173426500001  21.702264033599999   4.795024053800001 0
ion Ti  26.042728178699999  26.042728178699999   2.000000000000000 0
ion Ti  30.383173426500001  30.383173426500001   4.795024053800001 0
ion O   2.650289633100000   2.650289633100000   2.000000000000000 0
ion O   6.030619759800001   6.030619759800001   2.000000000000000 0
ion O   1.690174512000000   6.990734880899999   4.795024053800001 0
ion O   6.990734880899999   1.690174512000000   4.795024053800001 0
ion O   2.650289633100000  11.331199026000000   2.000000000000000 0
ion O   6.030619759800001  14.711529152700002   2.000000000000000 0
ion O   1.690174512000000  15.671644273800000   4.795024053800001 0
ion O   6.990734880899999  10.371083904900001   4.795024053800001 0
ion O   2.650289633100000  20.012108418899999   2.000000000000000 0
ion O   6.030619759800001  23.392438545600001   2.000000000000000 0
ion O   1.690174512000000  24.352553666700004   4.795024053800001 0
ion O   6.990734880899999  19.051993297799999   4.795024053800001 0
ion O   2.650289633100000  28.693017811800004   2.000000000000000 0
ion O   6.030619759800001  32.073347938499992   2.000000000000000 0
ion O   1.690174512000000  33.033463059599995   4.795024053800001 0
ion O   6.990734880899999  27.732902690700001   4.795024053800001 0
ion O  11.331199026000000   2.650289633100000   2.000000000000000 0
ion O  14.711529152700002   6.030619759800001   2.000000000000000 0
ion O  10.371083904900001   6.990734880899999   4.795024053800001 0
ion O  15.671644273800000   1.690174512000000   4.795024053800001 0
ion O  11.331199026000000  11.331199026000000   2.000000000000000 0
ion O  14.711529152700002  14.711529152700002   2.000000000000000 0
ion O  10.371083904900001  15.671644273800000   4.795024053800001 0
ion O  15.671644273800000  10.371083904900001   4.795024053800001 0
ion O  11.331199026000000  20.012108418899999   2.000000000000000 0
ion O  14.711529152700002  23.392438545600001   2.000000000000000 0
ion O  10.371083904900001  24.352553666700004   4.795024053800001 0
ion O  15.671644273800000  19.051993297799999   4.795024053800001 0
ion O  11.331199026000000  28.693017811800004   2.000000000000000 0
ion O  14.711529152700002  32.073347938499992   2.000000000000000 0
ion O  10.371083904900001  33.033463059599995   4.795024053800001 0
ion O  15.671644273800000  27.732902690700001   4.795024053800001 0
ion O  20.012108418899999   2.650289633100000   2.000000000000000 0
ion O  23.392438545600001   6.030619759800001   2.000000000000000 0
ion O  19.051993297799999   6.990734880899999   4.795024053800001 0
ion O  24.352553666700004   1.690174512000000   4.795024053800001 0
ion O  20.012108418899999  11.331199026000000   2.000000000000000 0
ion O  23.392438545600001  14.711529152700002   2.000000000000000 0
ion O  19.051993297799999  15.671644273800000   4.795024053800001 0
ion O  24.352553666700004  10.371083904900001   4.795024053800001 0
ion O  20.012108418899999  20.012108418899999   2.000000000000000 0
ion O  23.392438545600001  23.392438545600001   2.000000000000000 0
ion O  19.051993297799999  24.352553666700004   4.795024053800001 0
ion O  24.352553666700004  19.051993297799999   4.795024053800001 0
ion O  20.012108418899999  28.693017811800004   2.000000000000000 0
ion O  23.392438545600001  32.073347938499992   2.000000000000000 0
ion O  19.051993297799999  33.033463059599995   4.795024053800001 0
ion O  24.352553666700004  27.732902690700001   4.795024053800001 0
ion O  28.693017811800004   2.650289633100000   2.000000000000000 0
ion O  32.073347938499992   6.030619759800001   2.000000000000000 0
ion O  27.732902690700001   6.990734880899999   4.795024053800001 0
ion O  33.033463059599995   1.690174512000000   4.795024053800001 0
ion O  28.693017811800004  11.331199026000000   2.000000000000000 0
ion O  32.073347938499992  14.711529152700002   2.000000000000000 0
ion O  27.732902690700001  15.671644273800000   4.795024053800001 0
ion O  33.033463059599995  10.371083904900001   4.795024053800001 0
ion O  28.693017811800004  20.012108418899999   2.000000000000000 0
ion O  32.073347938499992  23.392438545600001   2.000000000000000 0
ion O  27.732902690700001  24.352553666700004   4.795024053800001 0
ion O  33.033463059599995  19.051993297799999   4.795024053800001 0
ion O  28.693017811800004  28.693017811800004   2.000000000000000 0
ion O  32.073347938499992  32.073347938499992   2.000000000000000 0
ion O  27.732902690700001  33.033463059599995   4.795024053800001 0
ion O  33.033463059599995  27.732902690700001   4.795024053800001 0
ion S  17.001371685599999  17.205462525600002  11.541908175499998 1
ion Na  14.117719294800001  19.615832037899999   8.847625627999999 1
ion Na  19.729064659500001  14.196539933100000   9.329960313200001 1
ion-species GBRV/$ID_pbe.uspp
ion-width 0
ionic-minimize  \
	dirUpdateScheme      FletcherReeves \
	linminMethod         DirUpdateRecommended \
	nIterations          200 \
	history              15 \
	knormThreshold       0.0001 \
	energyDiffThreshold  1e-06 \
	nEnergyDiff          2 \
	alphaTstart          1 \
	alphaTmin            1e-10 \
	updateTestStepSize   yes \
	alphaTreduceFactor   0.1 \
	alphaTincreaseFactor 3 \
	nAlphaAdjustMax      3 \
	wolfeEnergy          0.0001 \
	wolfeGradient        0.9 \
	fdTest               no
kpoint   0.000000000000   0.000000000000   0.000000000000  1.00000000000000
kpoint-folding 1 1 1 
latt-move-scale 1 1 1
latt-scale 1 1 1 
lattice Tetragonal 26.04 37.7946
lattice-minimize  \
	dirUpdateScheme      L-BFGS \
	linminMethod         DirUpdateRecommended \
	nIterations          0 \
	history              15 \
	knormThreshold       0 \
	energyDiffThreshold  1e-06 \
	nEnergyDiff          2 \
	alphaTstart          1 \
	alphaTmin            1e-10 \
	updateTestStepSize   yes \
	alphaTreduceFactor   0.1 \
	alphaTincreaseFactor 3 \
	nAlphaAdjustMax      3 \
	wolfeEnergy          0.0001 \
	wolfeGradient        0.9 \
	fdTest               no
lcao-params -1 1e-06 0.01
pcm-variant GLSSA13
spintype no-spin
subspace-rotation-factor 1 yes
symmetries automatic
symmetry-threshold 0.0001



---------- Setting up symmetries ----------

Found 16 point-group symmetries of the bravais lattice
Found 1 space-group symmetries with basis
Applied RMS atom displacement 0 bohrs to make symmetries exact.

---------- Initializing the Grid ----------
R = 
[        26.04            0            0  ]
[            0        26.04            0  ]
[            0            0      37.7946  ]
unit cell volume = 25627.8
G =
[    0.24129          0          0  ]
[          0    0.24129          0  ]
[          0          0   0.166246  ]
Minimum fftbox size, Smin = [  120  120  172  ]
Chosen fftbox size, S = [  120  120  180  ]

---------- Initializing tighter grid for wavefunction operations ----------
R = 
[        26.04            0            0  ]
[            0        26.04            0  ]
[            0            0      37.7946  ]
unit cell volume = 25627.8
G =
[    0.24129          0          0  ]
[          0    0.24129          0  ]
[          0          0   0.166246  ]
Minimum fftbox size, Smin = [  108  108  156  ]
Chosen fftbox size, S = [  108  108  160  ]

---------- Exchange Correlation functional ----------
Initalized PBE GGA exchange.
Initalized PBE GGA correlation.

---------- Setting up pseudopotentials ----------
Width of ionic core gaussian charges (only for fluid interactions / plotting) set to 0

Reading pseudopotential file '/home/andrewkim/jdftx_install/build/pseudopotentials/GBRV/ti_pbe.uspp':
  Title: Ti.  Created by USPP 7.3.6 on 31-3-15
  Reference state energy: -59.020943.  12 valence electrons in orbitals:
    |300>  occupation: 2  eigenvalue: -2.777623
    |310>  occupation: 6  eigenvalue: -1.894596
    |400>  occupation: 2  eigenvalue: -0.438610
    |320>  occupation: 1  eigenvalue: -0.583119
  lMax: 2  lLocal: 3  QijEcut: 6
  6 projectors sampled on a log grid with 597 points:
    l: 0  eig: -2.777624  rCut: 1.8
    l: 0  eig: -0.438611  rCut: 1.8
    l: 1  eig: -1.894596  rCut: 1.8
    l: 1  eig: 0.500000  rCut: 1.8
    l: 2  eig: -0.583118  rCut: 1.8
    l: 2  eig: 0.150000  rCut: 1.8
  Partial core density with radius 0.8
  Transforming core density to a uniform radial grid of dG=0.02 with 1273 points.
  Transforming local potential to a uniform radial grid of dG=0.02 with 1273 points.
  Transforming nonlocal projectors to a uniform radial grid of dG=0.02 with 432 points.
  Transforming density augmentations to a uniform radial grid of dG=0.02 with 1273 points.
  Transforming atomic orbitals to a uniform radial grid of dG=0.02 with 432 points.
  Core radius for overlap checks: 1.80 bohrs.

Reading pseudopotential file '/home/andrewkim/jdftx_install/build/pseudopotentials/GBRV/o_pbe.uspp':
  Title: O.  Created by USPP 7.3.6 on 3-2-2014
  Reference state energy: -15.894388.  6 valence electrons in orbitals:
    |200>  occupation: 2  eigenvalue: -0.878823
    |210>  occupation: 4  eigenvalue: -0.332131
  lMax: 2  lLocal: 2  QijEcut: 6
  5 projectors sampled on a log grid with 511 points:
    l: 0  eig: -0.878823  rCut: 1.25
    l: 0  eig: 0.000000  rCut: 1.25
    l: 1  eig: -0.332132  rCut: 1.25
    l: 1  eig: 0.000000  rCut: 1.25
    l: 2  eig: 1.000000  rCut: 1.25
  Partial core density with radius 0.7
  Transforming core density to a uniform radial grid of dG=0.02 with 1273 points.
  Transforming local potential to a uniform radial grid of dG=0.02 with 1273 points.
  Transforming nonlocal projectors to a uniform radial grid of dG=0.02 with 432 points.
  Transforming density augmentations to a uniform radial grid of dG=0.02 with 1273 points.
  Transforming atomic orbitals to a uniform radial grid of dG=0.02 with 432 points.
  Core radius for overlap checks: 1.25 bohrs.

Reading pseudopotential file '/home/andrewkim/jdftx_install/build/pseudopotentials/GBRV/s_pbe.uspp':
  Title: S.  Created by USPP 7.3.6 on 1-4-15
  Reference state energy: -11.898476.  6 valence electrons in orbitals:
    |300>  occupation: 2  eigenvalue: -0.634167
    |310>  occupation: 4  eigenvalue: -0.257568
  lMax: 2  lLocal: 3  QijEcut: 6
  6 projectors sampled on a log grid with 635 points:
    l: 0  eig: -0.634161  rCut: 1.5
    l: 0  eig: 1.500000  rCut: 1.5
    l: 1  eig: -0.257567  rCut: 1.5
    l: 1  eig: 1.500000  rCut: 1.5
    l: 2  eig: -1.000000  rCut: 1.5
    l: 2  eig: 1.500000  rCut: 1.5
  Partial core density with radius 1.15
  Transforming core density to a uniform radial grid of dG=0.02 with 1273 points.
  Transforming local potential to a uniform radial grid of dG=0.02 with 1273 points.
  Transforming nonlocal projectors to a uniform radial grid of dG=0.02 with 432 points.
  Transforming density augmentations to a uniform radial grid of dG=0.02 with 1273 points.
  Transforming atomic orbitals to a uniform radial grid of dG=0.02 with 432 points.
  Core radius for overlap checks: 1.50 bohrs.

Reading pseudopotential file '/home/andrewkim/jdftx_install/build/pseudopotentials/GBRV/na_pbe.uspp':
  Title: Na.  Created by USPP 7.3.6 on 23-9-15
  Reference state energy: -47.625620.  9 valence electrons in orbitals:
    |200>  occupation: 2  eigenvalue: -2.085638
    |210>  occupation: 6  eigenvalue: -1.053708
    |300>  occupation: 1  eigenvalue: -0.100838
  lMax: 2  lLocal: 0  QijEcut: 6
  5 projectors sampled on a log grid with 657 points:
    l: 0  eig: -2.085640  rCut: 1.37
    l: 0  eig: -0.100839  rCut: 1.37
    l: 1  eig: -1.053708  rCut: 1.47
    l: 1  eig: 0.500000  rCut: 1.47
    l: 2  eig: 0.750000  rCut: 2
  Transforming local potential to a uniform radial grid of dG=0.02 with 1273 points.
  Transforming nonlocal projectors to a uniform radial grid of dG=0.02 with 432 points.
  Transforming density augmentations to a uniform radial grid of dG=0.02 with 1273 points.
  Transforming atomic orbitals to a uniform radial grid of dG=0.02 with 432 points.
  Core radius for overlap checks: 2.00 bohrs.

Initialized 4 species with 99 total atoms.

WARNING: Ti #0 and Ti #6 are closer than the vector-sum of their core radii.
WARNING: Ti #0 and Ti #24 are closer than the vector-sum of their core radii.
WARNING: Ti #0 and Ti #30 are closer than the vector-sum of their core radii.
WARNING: Ti #1 and Ti #7 are closer than the vector-sum of their core radii.
WARNING: Ti #1 and Ti #25 are closer than the vector-sum of their core radii.
WARNING: Ti #1 and Ti #31 are closer than the vector-sum of their core radii.
WARNING: Ti #2 and Ti #26 are closer than the vector-sum of their core radii.
WARNING: Ti #3 and Ti #27 are closer than the vector-sum of their core radii.
WARNING: Ti #4 and Ti #28 are closer than the vector-sum of their core radii.
WARNING: Ti #5 and Ti #29 are closer than the vector-sum of their core radii.
WARNING: Ti #6 and Ti #24 are closer than the vector-sum of their core radii.
WARNING: Ti #6 and Ti #30 are closer than the vector-sum of their core radii.
WARNING: Ti #7 and Ti #25 are closer than the vector-sum of their core radii.
WARNING: Ti #7 and Ti #31 are closer than the vector-sum of their core radii.
WARNING: Ti #8 and Ti #14 are closer than the vector-sum of their core radii.
WARNING: Ti #9 and Ti #15 are closer than the vector-sum of their core radii.
WARNING: Ti #16 and Ti #22 are closer than the vector-sum of their core radii.
WARNING: Ti #17 and Ti #23 are closer than the vector-sum of their core radii.
WARNING: Ti #24 and Ti #30 are closer than the vector-sum of their core radii.
WARNING: Ti #25 and Ti #31 are closer than the vector-sum of their core radii.
WARNING: O #0 and O #12 are closer than the vector-sum of their core radii.
WARNING: O #0 and O #48 are closer than the vector-sum of their core radii.
WARNING: O #0 and O #60 are closer than the vector-sum of their core radii.
WARNING: O #1 and O #13 are closer than the vector-sum of their core radii.
WARNING: O #1 and O #49 are closer than the vector-sum of their core radii.
WARNING: O #1 and O #61 are closer than the vector-sum of their core radii.
WARNING: O #2 and O #14 are closer than the vector-sum of their core radii.
WARNING: O #2 and O #50 are closer than the vector-sum of their core radii.
WARNING: O #2 and O #62 are closer than the vector-sum of their core radii.
WARNING: O #3 and O #15 are closer than the vector-sum of their core radii.
WARNING: O #3 and O #51 are closer than the vector-sum of their core radii.
WARNING: O #3 and O #63 are closer than the vector-sum of their core radii.
WARNING: O #4 and O #52 are closer than the vector-sum of their core radii.
WARNING: O #5 and O #53 are closer than the vector-sum of their core radii.
WARNING: O #6 and O #54 are closer than the vector-sum of their core radii.
WARNING: O #7 and O #55 are closer than the vector-sum of their core radii.
WARNING: O #8 and O #56 are closer than the vector-sum of their core radii.
WARNING: O #9 and O #57 are closer than the vector-sum of their core radii.
WARNING: O #10 and O #58 are closer than the vector-sum of their core radii.
WARNING: O #11 and O #59 are closer than the vector-sum of their core radii.
WARNING: O #12 and O #48 are closer than the vector-sum of their core radii.
WARNING: O #12 and O #60 are closer than the vector-sum of their core radii.
WARNING: O #13 and O #49 are closer than the vector-sum of their core radii.
WARNING: O #13 and O #61 are closer than the vector-sum of their core radii.
WARNING: O #14 and O #50 are closer than the vector-sum of their core radii.
WARNING: O #14 and O #62 are closer than the vector-sum of their core radii.
WARNING: O #15 and O #51 are closer than the vector-sum of their core radii.
WARNING: O #15 and O #63 are closer than the vector-sum of their core radii.
WARNING: O #16 and O #28 are closer than the vector-sum of their core radii.
WARNING: O #17 and O #29 are closer than the vector-sum of their core radii.
WARNING: O #18 and O #30 are closer than the vector-sum of their core radii.
WARNING: O #19 and O #31 are closer than the vector-sum of their core radii.
WARNING: O #32 and O #44 are closer than the vector-sum of their core radii.
WARNING: O #33 and O #45 are closer than the vector-sum of their core radii.
WARNING: O #34 and O #46 are closer than the vector-sum of their core radii.
WARNING: O #35 and O #47 are closer than the vector-sum of their core radii.
WARNING: O #48 and O #60 are closer than the vector-sum of their core radii.
WARNING: O #49 and O #61 are closer than the vector-sum of their core radii.
WARNING: O #50 and O #62 are closer than the vector-sum of their core radii.
WARNING: O #51 and O #63 are closer than the vector-sum of their core radii.

Atoms are too close, have overlapping pseudopotential cores.

End date and time: Tue Apr 16 16:23:47 2024  (Duration: 0-0:00:01.51)
Failed.

*************** JDFTx 1.7.0  ***************

Start date and time: Tue Apr 16 16:24:37 2024
Executable jdftx with command-line: -i Na2S@TiO2.in -o Na2S@TiO2.out
Running on hosts (process indices):  rqtUbuntuMac (0)
Divided in process groups (process indices):  0 (0)
Resource initialization completed at t[s]:      0.00
Run totals: 1 processes, 8 threads, 0 GPUs


Input parsed successfully to the following command list (including defaults):

basis kpoint-dependent
coords-type Cartesian
core-overlap-check vector
coulomb-interaction Slab 001
coulomb-truncation-embed 0 0 1
davidson-band-ratio 1.1
dump End State
dump-name Na2S@TiO2.$VAR
elec-cutoff 20 100
elec-eigen-algo Davidson
elec-ex-corr gga-PBE
elec-smearing Fermi 0.01
electronic-minimize  \
	dirUpdateScheme      FletcherReeves \
	linminMethod         DirUpdateRecommended \
	nIterations          100 \
	history              15 \
	knormThreshold       0 \
	energyDiffThreshold  1e-08 \
	nEnergyDiff          2 \
	alphaTstart          1 \
	alphaTmin            1e-10 \
	updateTestStepSize   yes \
	alphaTreduceFactor   0.1 \
	alphaTincreaseFactor 3 \
	nAlphaAdjustMax      3 \
	wolfeEnergy          0.0001 \
	wolfeGradient        0.9 \
	fdTest               no
electronic-scf  \
	nIterations	50 \
	energyDiffThreshold	1e-08 \
	residualThreshold	1e-07 \
	mixFraction	0.5 \
	qMetric	0.8 \
	history	10 \
	nEigSteps	2 \
	eigDiffThreshold	1e-08 \
	mixedVariable	Density \
	qKerker	0.8 \
	qKappa	-1 \
	verbose	no \
	mixFractionMag	1.5
exchange-regularization WignerSeitzTruncated
fluid None
fluid-ex-corr lda-TF lda-PZ
fluid-gummel-loop 10 1.000000e-05
fluid-minimize  \
	dirUpdateScheme      PolakRibiere \
	linminMethod         DirUpdateRecommended \
	nIterations          100 \
	history              15 \
	knormThreshold       0 \
	energyDiffThreshold  0 \
	nEnergyDiff          2 \
	alphaTstart          1 \
	alphaTmin            1e-10 \
	updateTestStepSize   yes \
	alphaTreduceFactor   0.1 \
	alphaTincreaseFactor 3 \
	nAlphaAdjustMax      3 \
	wolfeEnergy          0.0001 \
	wolfeGradient        0.9 \
	fdTest               no
fluid-solvent H2O 55.338 ScalarEOS \
	epsBulk 78.4 \
	pMol 0.92466 \
	epsInf 1.77 \
	Pvap 1.06736e-10 \
	sigmaBulk 4.62e-05 \
	Rvdw 2.61727 \
	Res 1.42 \
	tauNuc 343133 \
	poleEl 15 7 1
forces-output-coords Positions
ion Ti   0.000000000000000   0.000000000000000   2.000000000000000 0
ion Ti   4.340445247800000   4.340445247800000   4.795024053800001 0
ion Ti   0.000000000000000   8.680909392899999   2.000000000000000 0
ion Ti   4.340445247800000  13.021354640700002   4.795024053800001 0
ion Ti   0.000000000000000  17.361818785799997   2.000000000000000 0
ion Ti   4.340445247800000  21.702264033599999   4.795024053800001 0
ion Ti   0.000000000000000  26.042728178699999   2.000000000000000 0
ion Ti   4.340464145100000  30.383173426500001   4.795024053800001 0
ion Ti   8.680909392899999   0.000000000000000   2.000000000000000 0
ion Ti  13.021354640700002   4.340445247800000   4.795024053800001 0
ion Ti   8.680909392899999   8.680909392899999   2.000000000000000 0
ion Ti  13.021354640700002  13.021354640700002   4.795024053800001 0
ion Ti   8.680909392899999  17.361818785799997   2.000000000000000 0
ion Ti  13.021373538000002  21.702264033599999   4.795024053800001 0
ion Ti   8.680909392899999  26.042728178699999   2.000000000000000 0
ion Ti  13.021373538000002  30.383173426500001   4.795024053800001 0
ion Ti  17.361818785799997   0.000000000000000   2.000000000000000 0
ion Ti  21.702264033599999   4.340445247800000   4.795024053800001 0
ion Ti  17.361818785799997   8.680909392899999   2.000000000000000 0
ion Ti  21.702264033599999  13.021354640700002   4.795024053800001 0
ion Ti  17.361818785799997  17.361818785799997   2.000000000000000 0
ion Ti  21.702264033599999  21.702264033599999   4.795024053800001 0
ion Ti  17.361818785799997  26.042728178699999   2.000000000000000 0
ion Ti  21.702264033599999  30.383173426500001   4.795024053800001 0
ion Ti  26.042728178699999   0.000000000000000   2.000000000000000 0
ion Ti  30.383173426500001   4.340445247800000   4.795024053800001 0
ion Ti  26.042728178699999   8.680909392899999   2.000000000000000 0
ion Ti  30.383173426500001  13.021354640700002   4.795024053800001 0
ion Ti  26.042728178699999  17.361818785799997   2.000000000000000 0
ion Ti  30.383173426500001  21.702264033599999   4.795024053800001 0
ion Ti  26.042728178699999  26.042728178699999   2.000000000000000 0
ion Ti  30.383173426500001  30.383173426500001   4.795024053800001 0
ion O   2.650289633100000   2.650289633100000   2.000000000000000 0
ion O   6.030619759800001   6.030619759800001   2.000000000000000 0
ion O   1.690174512000000   6.990734880899999   4.795024053800001 0
ion O   6.990734880899999   1.690174512000000   4.795024053800001 0
ion O   2.650289633100000  11.331199026000000   2.000000000000000 0
ion O   6.030619759800001  14.711529152700002   2.000000000000000 0
ion O   1.690174512000000  15.671644273800000   4.795024053800001 0
ion O   6.990734880899999  10.371083904900001   4.795024053800001 0
ion O   2.650289633100000  20.012108418899999   2.000000000000000 0
ion O   6.030619759800001  23.392438545600001   2.000000000000000 0
ion O   1.690174512000000  24.352553666700004   4.795024053800001 0
ion O   6.990734880899999  19.051993297799999   4.795024053800001 0
ion O   2.650289633100000  28.693017811800004   2.000000000000000 0
ion O   6.030619759800001  32.073347938499992   2.000000000000000 0
ion O   1.690174512000000  33.033463059599995   4.795024053800001 0
ion O   6.990734880899999  27.732902690700001   4.795024053800001 0
ion O  11.331199026000000   2.650289633100000   2.000000000000000 0
ion O  14.711529152700002   6.030619759800001   2.000000000000000 0
ion O  10.371083904900001   6.990734880899999   4.795024053800001 0
ion O  15.671644273800000   1.690174512000000   4.795024053800001 0
ion O  11.331199026000000  11.331199026000000   2.000000000000000 0
ion O  14.711529152700002  14.711529152700002   2.000000000000000 0
ion O  10.371083904900001  15.671644273800000   4.795024053800001 0
ion O  15.671644273800000  10.371083904900001   4.795024053800001 0
ion O  11.331199026000000  20.012108418899999   2.000000000000000 0
ion O  14.711529152700002  23.392438545600001   2.000000000000000 0
ion O  10.371083904900001  24.352553666700004   4.795024053800001 0
ion O  15.671644273800000  19.051993297799999   4.795024053800001 0
ion O  11.331199026000000  28.693017811800004   2.000000000000000 0
ion O  14.711529152700002  32.073347938499992   2.000000000000000 0
ion O  10.371083904900001  33.033463059599995   4.795024053800001 0
ion O  15.671644273800000  27.732902690700001   4.795024053800001 0
ion O  20.012108418899999   2.650289633100000   2.000000000000000 0
ion O  23.392438545600001   6.030619759800001   2.000000000000000 0
ion O  19.051993297799999   6.990734880899999   4.795024053800001 0
ion O  24.352553666700004   1.690174512000000   4.795024053800001 0
ion O  20.012108418899999  11.331199026000000   2.000000000000000 0
ion O  23.392438545600001  14.711529152700002   2.000000000000000 0
ion O  19.051993297799999  15.671644273800000   4.795024053800001 0
ion O  24.352553666700004  10.371083904900001   4.795024053800001 0
ion O  20.012108418899999  20.012108418899999   2.000000000000000 0
ion O  23.392438545600001  23.392438545600001   2.000000000000000 0
ion O  19.051993297799999  24.352553666700004   4.795024053800001 0
ion O  24.352553666700004  19.051993297799999   4.795024053800001 0
ion O  20.012108418899999  28.693017811800004   2.000000000000000 0
ion O  23.392438545600001  32.073347938499992   2.000000000000000 0
ion O  19.051993297799999  33.033463059599995   4.795024053800001 0
ion O  24.352553666700004  27.732902690700001   4.795024053800001 0
ion O  28.693017811800004   2.650289633100000   2.000000000000000 0
ion O  32.073347938499992   6.030619759800001   2.000000000000000 0
ion O  27.732902690700001   6.990734880899999   4.795024053800001 0
ion O  33.033463059599995   1.690174512000000   4.795024053800001 0
ion O  28.693017811800004  11.331199026000000   2.000000000000000 0
ion O  32.073347938499992  14.711529152700002   2.000000000000000 0
ion O  27.732902690700001  15.671644273800000   4.795024053800001 0
ion O  33.033463059599995  10.371083904900001   4.795024053800001 0
ion O  28.693017811800004  20.012108418899999   2.000000000000000 0
ion O  32.073347938499992  23.392438545600001   2.000000000000000 0
ion O  27.732902690700001  24.352553666700004   4.795024053800001 0
ion O  33.033463059599995  19.051993297799999   4.795024053800001 0
ion O  28.693017811800004  28.693017811800004   2.000000000000000 0
ion O  32.073347938499992  32.073347938499992   2.000000000000000 0
ion O  27.732902690700001  33.033463059599995   4.795024053800001 0
ion O  33.033463059599995  27.732902690700001   4.795024053800001 0
ion S  17.001371685599999  17.205462525600002  11.541908175499998 1
ion Na  14.117719294800001  19.615832037899999   8.847625627999999 1
ion Na  19.729064659500001  14.196539933100000   9.329960313200001 1
ion-species GBRV/$ID_pbe.uspp
ion-width 0
ionic-minimize  \
	dirUpdateScheme      FletcherReeves \
	linminMethod         DirUpdateRecommended \
	nIterations          200 \
	history              15 \
	knormThreshold       0.0001 \
	energyDiffThreshold  1e-06 \
	nEnergyDiff          2 \
	alphaTstart          1 \
	alphaTmin            1e-10 \
	updateTestStepSize   yes \
	alphaTreduceFactor   0.1 \
	alphaTincreaseFactor 3 \
	nAlphaAdjustMax      3 \
	wolfeEnergy          0.0001 \
	wolfeGradient        0.9 \
	fdTest               no
kpoint   0.000000000000   0.000000000000   0.000000000000  1.00000000000000
kpoint-folding 1 1 1 
latt-move-scale 1 1 1
latt-scale 1 1 1 
lattice Tetragonal 26.04 37.7946
lattice-minimize  \
	dirUpdateScheme      L-BFGS \
	linminMethod         DirUpdateRecommended \
	nIterations          0 \
	history              15 \
	knormThreshold       0 \
	energyDiffThreshold  1e-06 \
	nEnergyDiff          2 \
	alphaTstart          1 \
	alphaTmin            1e-10 \
	updateTestStepSize   yes \
	alphaTreduceFactor   0.1 \
	alphaTincreaseFactor 3 \
	nAlphaAdjustMax      3 \
	wolfeEnergy          0.0001 \
	wolfeGradient        0.9 \
	fdTest               no
lcao-params -1 1e-06 0.01
pcm-variant GLSSA13
spintype no-spin
subspace-rotation-factor 1 yes
symmetries automatic
symmetry-threshold 0.0001



---------- Setting up symmetries ----------

Found 16 point-group symmetries of the bravais lattice
Found 1 space-group symmetries with basis
Applied RMS atom displacement 0 bohrs to make symmetries exact.

---------- Initializing the Grid ----------
R = 
[        26.04            0            0  ]
[            0        26.04            0  ]
[            0            0      37.7946  ]
unit cell volume = 25627.8
G =
[    0.24129          0          0  ]
[          0    0.24129          0  ]
[          0          0   0.166246  ]
Minimum fftbox size, Smin = [  120  120  172  ]
Chosen fftbox size, S = [  120  120  180  ]

---------- Initializing tighter grid for wavefunction operations ----------
R = 
[        26.04            0            0  ]
[            0        26.04            0  ]
[            0            0      37.7946  ]
unit cell volume = 25627.8
G =
[    0.24129          0          0  ]
[          0    0.24129          0  ]
[          0          0   0.166246  ]
Minimum fftbox size, Smin = [  108  108  156  ]
Chosen fftbox size, S = [  108  108  160  ]

---------- Exchange Correlation functional ----------
Initalized PBE GGA exchange.
Initalized PBE GGA correlation.

---------- Setting up pseudopotentials ----------
Width of ionic core gaussian charges (only for fluid interactions / plotting) set to 0

Reading pseudopotential file '/home/andrewkim/jdftx_install/build/pseudopotentials/GBRV/ti_pbe.uspp':
  Title: Ti.  Created by USPP 7.3.6 on 31-3-15
  Reference state energy: -59.020943.  12 valence electrons in orbitals:
    |300>  occupation: 2  eigenvalue: -2.777623
    |310>  occupation: 6  eigenvalue: -1.894596
    |400>  occupation: 2  eigenvalue: -0.438610
    |320>  occupation: 1  eigenvalue: -0.583119
  lMax: 2  lLocal: 3  QijEcut: 6
  6 projectors sampled on a log grid with 597 points:
    l: 0  eig: -2.777624  rCut: 1.8
    l: 0  eig: -0.438611  rCut: 1.8
    l: 1  eig: -1.894596  rCut: 1.8
    l: 1  eig: 0.500000  rCut: 1.8
    l: 2  eig: -0.583118  rCut: 1.8
    l: 2  eig: 0.150000  rCut: 1.8
  Partial core density with radius 0.8
  Transforming core density to a uniform radial grid of dG=0.02 with 1273 points.
  Transforming local potential to a uniform radial grid of dG=0.02 with 1273 points.
  Transforming nonlocal projectors to a uniform radial grid of dG=0.02 with 432 points.
  Transforming density augmentations to a uniform radial grid of dG=0.02 with 1273 points.
  Transforming atomic orbitals to a uniform radial grid of dG=0.02 with 432 points.
  Core radius for overlap checks: 1.80 bohrs.

Reading pseudopotential file '/home/andrewkim/jdftx_install/build/pseudopotentials/GBRV/o_pbe.uspp':
  Title: O.  Created by USPP 7.3.6 on 3-2-2014
  Reference state energy: -15.894388.  6 valence electrons in orbitals:
    |200>  occupation: 2  eigenvalue: -0.878823
    |210>  occupation: 4  eigenvalue: -0.332131
  lMax: 2  lLocal: 2  QijEcut: 6
  5 projectors sampled on a log grid with 511 points:
    l: 0  eig: -0.878823  rCut: 1.25
    l: 0  eig: 0.000000  rCut: 1.25
    l: 1  eig: -0.332132  rCut: 1.25
    l: 1  eig: 0.000000  rCut: 1.25
    l: 2  eig: 1.000000  rCut: 1.25
  Partial core density with radius 0.7
  Transforming core density to a uniform radial grid of dG=0.02 with 1273 points.
  Transforming local potential to a uniform radial grid of dG=0.02 with 1273 points.
  Transforming nonlocal projectors to a uniform radial grid of dG=0.02 with 432 points.
  Transforming density augmentations to a uniform radial grid of dG=0.02 with 1273 points.
  Transforming atomic orbitals to a uniform radial grid of dG=0.02 with 432 points.
  Core radius for overlap checks: 1.25 bohrs.

Reading pseudopotential file '/home/andrewkim/jdftx_install/build/pseudopotentials/GBRV/s_pbe.uspp':
  Title: S.  Created by USPP 7.3.6 on 1-4-15
  Reference state energy: -11.898476.  6 valence electrons in orbitals:
    |300>  occupation: 2  eigenvalue: -0.634167
    |310>  occupation: 4  eigenvalue: -0.257568
  lMax: 2  lLocal: 3  QijEcut: 6
  6 projectors sampled on a log grid with 635 points:
    l: 0  eig: -0.634161  rCut: 1.5
    l: 0  eig: 1.500000  rCut: 1.5
    l: 1  eig: -0.257567  rCut: 1.5
    l: 1  eig: 1.500000  rCut: 1.5
    l: 2  eig: -1.000000  rCut: 1.5
    l: 2  eig: 1.500000  rCut: 1.5
  Partial core density with radius 1.15
  Transforming core density to a uniform radial grid of dG=0.02 with 1273 points.
  Transforming local potential to a uniform radial grid of dG=0.02 with 1273 points.
  Transforming nonlocal projectors to a uniform radial grid of dG=0.02 with 432 points.
  Transforming density augmentations to a uniform radial grid of dG=0.02 with 1273 points.
  Transforming atomic orbitals to a uniform radial grid of dG=0.02 with 432 points.
  Core radius for overlap checks: 1.50 bohrs.

Reading pseudopotential file '/home/andrewkim/jdftx_install/build/pseudopotentials/GBRV/na_pbe.uspp':
  Title: Na.  Created by USPP 7.3.6 on 23-9-15
  Reference state energy: -47.625620.  9 valence electrons in orbitals:
    |200>  occupation: 2  eigenvalue: -2.085638
    |210>  occupation: 6  eigenvalue: -1.053708
    |300>  occupation: 1  eigenvalue: -0.100838
  lMax: 2  lLocal: 0  QijEcut: 6
  5 projectors sampled on a log grid with 657 points:
    l: 0  eig: -2.085640  rCut: 1.37
    l: 0  eig: -0.100839  rCut: 1.37
    l: 1  eig: -1.053708  rCut: 1.47
    l: 1  eig: 0.500000  rCut: 1.47
    l: 2  eig: 0.750000  rCut: 2
  Transforming local potential to a uniform radial grid of dG=0.02 with 1273 points.
  Transforming nonlocal projectors to a uniform radial grid of dG=0.02 with 432 points.
  Transforming density augmentations to a uniform radial grid of dG=0.02 with 1273 points.
  Transforming atomic orbitals to a uniform radial grid of dG=0.02 with 432 points.
  Core radius for overlap checks: 2.00 bohrs.

Initialized 4 species with 99 total atoms.

WARNING: Ti #0 and Ti #6 are closer than the vector-sum of their core radii.
WARNING: Ti #0 and Ti #24 are closer than the vector-sum of their core radii.
WARNING: Ti #0 and Ti #30 are closer than the vector-sum of their core radii.
WARNING: Ti #1 and Ti #7 are closer than the vector-sum of their core radii.
WARNING: Ti #1 and Ti #25 are closer than the vector-sum of their core radii.
WARNING: Ti #1 and Ti #31 are closer than the vector-sum of their core radii.
WARNING: Ti #2 and Ti #26 are closer than the vector-sum of their core radii.
WARNING: Ti #3 and Ti #27 are closer than the vector-sum of their core radii.
WARNING: Ti #4 and Ti #28 are closer than the vector-sum of their core radii.
WARNING: Ti #5 and Ti #29 are closer than the vector-sum of their core radii.
WARNING: Ti #6 and Ti #24 are closer than the vector-sum of their core radii.
WARNING: Ti #6 and Ti #30 are closer than the vector-sum of their core radii.
WARNING: Ti #7 and Ti #25 are closer than the vector-sum of their core radii.
WARNING: Ti #7 and Ti #31 are closer than the vector-sum of their core radii.
WARNING: Ti #8 and Ti #14 are closer than the vector-sum of their core radii.
WARNING: Ti #9 and Ti #15 are closer than the vector-sum of their core radii.
WARNING: Ti #16 and Ti #22 are closer than the vector-sum of their core radii.
WARNING: Ti #17 and Ti #23 are closer than the vector-sum of their core radii.
WARNING: Ti #24 and Ti #30 are closer than the vector-sum of their core radii.
WARNING: Ti #25 and Ti #31 are closer than the vector-sum of their core radii.
WARNING: O #0 and O #12 are closer than the vector-sum of their core radii.
WARNING: O #0 and O #48 are closer than the vector-sum of their core radii.
WARNING: O #0 and O #60 are closer than the vector-sum of their core radii.
WARNING: O #1 and O #13 are closer than the vector-sum of their core radii.
WARNING: O #1 and O #49 are closer than the vector-sum of their core radii.
WARNING: O #1 and O #61 are closer than the vector-sum of their core radii.
WARNING: O #2 and O #14 are closer than the vector-sum of their core radii.
WARNING: O #2 and O #50 are closer than the vector-sum of their core radii.
WARNING: O #2 and O #62 are closer than the vector-sum of their core radii.
WARNING: O #3 and O #15 are closer than the vector-sum of their core radii.
WARNING: O #3 and O #51 are closer than the vector-sum of their core radii.
WARNING: O #3 and O #63 are closer than the vector-sum of their core radii.
WARNING: O #4 and O #52 are closer than the vector-sum of their core radii.
WARNING: O #5 and O #53 are closer than the vector-sum of their core radii.
WARNING: O #6 and O #54 are closer than the vector-sum of their core radii.
WARNING: O #7 and O #55 are closer than the vector-sum of their core radii.
WARNING: O #8 and O #56 are closer than the vector-sum of their core radii.
WARNING: O #9 and O #57 are closer than the vector-sum of their core radii.
WARNING: O #10 and O #58 are closer than the vector-sum of their core radii.
WARNING: O #11 and O #59 are closer than the vector-sum of their core radii.
WARNING: O #12 and O #48 are closer than the vector-sum of their core radii.
WARNING: O #12 and O #60 are closer than the vector-sum of their core radii.
WARNING: O #13 and O #49 are closer than the vector-sum of their core radii.
WARNING: O #13 and O #61 are closer than the vector-sum of their core radii.
WARNING: O #14 and O #50 are closer than the vector-sum of their core radii.
WARNING: O #14 and O #62 are closer than the vector-sum of their core radii.
WARNING: O #15 and O #51 are closer than the vector-sum of their core radii.
WARNING: O #15 and O #63 are closer than the vector-sum of their core radii.
WARNING: O #16 and O #28 are closer than the vector-sum of their core radii.
WARNING: O #17 and O #29 are closer than the vector-sum of their core radii.
WARNING: O #18 and O #30 are closer than the vector-sum of their core radii.
WARNING: O #19 and O #31 are closer than the vector-sum of their core radii.
WARNING: O #32 and O #44 are closer than the vector-sum of their core radii.
WARNING: O #33 and O #45 are closer than the vector-sum of their core radii.
WARNING: O #34 and O #46 are closer than the vector-sum of their core radii.
WARNING: O #35 and O #47 are closer than the vector-sum of their core radii.
WARNING: O #48 and O #60 are closer than the vector-sum of their core radii.
WARNING: O #49 and O #61 are closer than the vector-sum of their core radii.
WARNING: O #50 and O #62 are closer than the vector-sum of their core radii.
WARNING: O #51 and O #63 are closer than the vector-sum of their core radii.

Atoms are too close, have overlapping pseudopotential cores.

End date and time: Tue Apr 16 16:24:38 2024  (Duration: 0-0:00:01.46)
Failed.

*************** JDFTx 1.7.0  ***************

Start date and time: Tue Apr 16 16:26:02 2024
Executable jdftx with command-line: -i Na2S@TiO2.in -o Na2S@TiO2.out
Running on hosts (process indices):  rqtUbuntuMac (0)
Divided in process groups (process indices):  0 (0)
Resource initialization completed at t[s]:      0.00
Run totals: 1 processes, 8 threads, 0 GPUs


Input parsed successfully to the following command list (including defaults):

basis kpoint-dependent
coords-type Cartesian
core-overlap-check vector
coulomb-interaction Slab 001
coulomb-truncation-embed 0 0 8
davidson-band-ratio 1.1
dump End State
dump-name Na2S@TiO2.$VAR
elec-cutoff 20 100
elec-eigen-algo Davidson
elec-ex-corr gga-PBE
elec-smearing Fermi 0.01
electronic-minimize  \
	dirUpdateScheme      FletcherReeves \
	linminMethod         DirUpdateRecommended \
	nIterations          100 \
	history              15 \
	knormThreshold       0 \
	energyDiffThreshold  1e-08 \
	nEnergyDiff          2 \
	alphaTstart          1 \
	alphaTmin            1e-10 \
	updateTestStepSize   yes \
	alphaTreduceFactor   0.1 \
	alphaTincreaseFactor 3 \
	nAlphaAdjustMax      3 \
	wolfeEnergy          0.0001 \
	wolfeGradient        0.9 \
	fdTest               no
electronic-scf  \
	nIterations	50 \
	energyDiffThreshold	1e-08 \
	residualThreshold	1e-07 \
	mixFraction	0.5 \
	qMetric	0.8 \
	history	10 \
	nEigSteps	2 \
	eigDiffThreshold	1e-08 \
	mixedVariable	Density \
	qKerker	0.8 \
	qKappa	-1 \
	verbose	no \
	mixFractionMag	1.5
exchange-regularization WignerSeitzTruncated
fluid None
fluid-ex-corr lda-TF lda-PZ
fluid-gummel-loop 10 1.000000e-05
fluid-minimize  \
	dirUpdateScheme      PolakRibiere \
	linminMethod         DirUpdateRecommended \
	nIterations          100 \
	history              15 \
	knormThreshold       0 \
	energyDiffThreshold  0 \
	nEnergyDiff          2 \
	alphaTstart          1 \
	alphaTmin            1e-10 \
	updateTestStepSize   yes \
	alphaTreduceFactor   0.1 \
	alphaTincreaseFactor 3 \
	nAlphaAdjustMax      3 \
	wolfeEnergy          0.0001 \
	wolfeGradient        0.9 \
	fdTest               no
fluid-solvent H2O 55.338 ScalarEOS \
	epsBulk 78.4 \
	pMol 0.92466 \
	epsInf 1.77 \
	Pvap 1.06736e-10 \
	sigmaBulk 4.62e-05 \
	Rvdw 2.61727 \
	Res 1.42 \
	tauNuc 343133 \
	poleEl 15 7 1
forces-output-coords Positions
ion Ti   0.000000174975000  -0.000000174975000   2.000000000000000 0
ion Ti   4.340445422775000   4.340445072825000   4.795024053800001 0
ion Ti   0.000000174975000   8.680909217924999   2.000000000000000 0
ion Ti   4.340445422775000  13.021354465725000   4.795024053800001 0
ion Ti   0.000000174975000  17.361818610825001   2.000000000000000 0
ion Ti   4.340445422775000  21.702263858624999   4.795024053800001 0
ion Ti   8.680909567874998  -0.000000174975000   2.000000000000000 0
ion Ti  13.021354815675002   4.340445072825000   4.795024053800001 0
ion Ti   8.680909567874998   8.680909217924999   2.000000000000000 0
ion Ti  13.021354815675002  13.021354465725000   4.795024053800001 0
ion Ti   8.680909567874998  17.361818610825001   2.000000000000000 0
ion Ti  13.021364264325003  21.702263858624999   4.795024053800001 0
ion Ti  17.361818960775000  -0.000000174975000   2.000000000000000 0
ion Ti  21.702264208574999   4.340445072825000   4.795024053800001 0
ion Ti  17.361818960775000   8.680909217924999   2.000000000000000 0
ion Ti  21.702264208574999  13.021363914375000   4.795024053800001 0
ion Ti  17.361818960775000  17.361818610825001   2.000000000000000 0
ion Ti  21.702264208574999  21.702263858624999   4.795024053800001 0
ion O   2.650289808075000   2.650289458125000   2.000000000000000 0
ion O   6.030619934775000   6.030619584825001   2.000000000000000 0
ion O   1.690174686975000   6.990734705924999   4.795024053800001 0
ion O   6.990735055874999   1.690174337025000   4.795024053800001 0
ion O   2.650289808075000  11.331198851025000   2.000000000000000 0
ion O   6.030619934775000  14.711528977725004   2.000000000000000 0
ion O   1.690174686975000  15.671644098825000   4.795024053800001 0
ion O   6.990735055874999  10.371083729925001   4.795024053800001 0
ion O   2.650289808075000  20.012108243924999   2.000000000000000 0
ion O   6.030619934775000  23.392438370625001   2.000000000000000 0
ion O   1.690174686975000  24.352553491725004   4.795024053800001 0
ion O   6.990735055874999  19.051993122824996   4.795024053800001 0
ion O  11.331199200975000   2.650289458125000   2.000000000000000 0
ion O  14.711529327675001   6.030619584825001   2.000000000000000 0
ion O  10.371084079875001   6.990734705924999   4.795024053800001 0
ion O  15.671644448774998   1.690174337025000   4.795024053800001 0
ion O  11.331199200975000  11.331198851025000   2.000000000000000 0
ion O  14.711529327675001  14.711528977725004   2.000000000000000 0
ion O  10.371084079875001  15.671644098825000   4.795024053800001 0
ion O  15.671644448774998  10.371083729925001   4.795024053800001 0
ion O  11.331199200975000  20.012108243924999   2.000000000000000 0
ion O  14.711529327675001  23.392438370625001   2.000000000000000 0
ion O  10.371084079875001  24.352553491725004   4.795024053800001 0
ion O  15.671644448774998  19.051993122824996   4.795024053800001 0
ion O  20.012108593874995   2.650289458125000   2.000000000000000 0
ion O  23.392438720575004   6.030619584825001   2.000000000000000 0
ion O  19.051993472774999   6.990734705924999   4.795024053800001 0
ion O  24.352553841675000   1.690174337025000   4.795024053800001 0
ion O  20.012108593874995  11.331198851025000   2.000000000000000 0
ion O  23.392438720575004  14.711528977725004   2.000000000000000 0
ion O  19.051993472774999  15.671644098825000   4.795024053800001 0
ion O  24.352553841675000  10.371083729925001   4.795024053800001 0
ion O  20.012108593874995  20.012108243924999   2.000000000000000 0
ion O  23.392438720575004  23.392438370625001   2.000000000000000 0
ion O  19.051993472774999  24.352553491725004   4.795024053800001 0
ion O  24.352553841675000  19.051993122824996   4.795024053800001 0
ion S  17.001371685599999  17.205462525600002  11.541908175499998 0
ion Na  14.117719294800001  19.615832037899999   8.847625627999999 0
ion Na  19.729064659500001  14.196539933100000   9.329960313200001 0
ion-species GBRV/$ID_pbe.uspp
ion-width 0
ionic-minimize  \
	dirUpdateScheme      FletcherReeves \
	linminMethod         DirUpdateRecommended \
	nIterations          200 \
	history              15 \
	knormThreshold       0.0001 \
	energyDiffThreshold  1e-06 \
	nEnergyDiff          2 \
	alphaTstart          1 \
	alphaTmin            1e-10 \
	updateTestStepSize   yes \
	alphaTreduceFactor   0.1 \
	alphaTincreaseFactor 3 \
	nAlphaAdjustMax      3 \
	wolfeEnergy          0.0001 \
	wolfeGradient        0.9 \
	fdTest               no
kpoint   0.000000000000   0.000000000000   0.000000000000  1.00000000000000
kpoint-folding 1 1 1 
latt-move-scale 1 1 1
latt-scale 1 1 1 
lattice Tetragonal 26.04 37.7946
lattice-minimize  \
	dirUpdateScheme      L-BFGS \
	linminMethod         DirUpdateRecommended \
	nIterations          0 \
	history              15 \
	knormThreshold       0 \
	energyDiffThreshold  1e-06 \
	nEnergyDiff          2 \
	alphaTstart          1 \
	alphaTmin            1e-10 \
	updateTestStepSize   yes \
	alphaTreduceFactor   0.1 \
	alphaTincreaseFactor 3 \
	nAlphaAdjustMax      3 \
	wolfeEnergy          0.0001 \
	wolfeGradient        0.9 \
	fdTest               no
lcao-params -1 1e-06 0.01
pcm-variant GLSSA13
spintype no-spin
subspace-rotation-factor 1 yes
symmetries automatic
symmetry-threshold 0.0001



---------- Setting up symmetries ----------

Found 16 point-group symmetries of the bravais lattice
Found 1 space-group symmetries with basis
Applied RMS atom displacement 0 bohrs to make symmetries exact.

---------- Initializing the Grid ----------
R = 
[        26.04            0            0  ]
[            0        26.04            0  ]
[            0            0      37.7946  ]
unit cell volume = 25627.8
G =
[    0.24129          0          0  ]
[          0    0.24129          0  ]
[          0          0   0.166246  ]
Minimum fftbox size, Smin = [  120  120  172  ]
Chosen fftbox size, S = [  120  120  180  ]

---------- Initializing tighter grid for wavefunction operations ----------
R = 
[        26.04            0            0  ]
[            0        26.04            0  ]
[            0            0      37.7946  ]
unit cell volume = 25627.8
G =
[    0.24129          0          0  ]
[          0    0.24129          0  ]
[          0          0   0.166246  ]
Minimum fftbox size, Smin = [  108  108  156  ]
Chosen fftbox size, S = [  108  108  160  ]

---------- Exchange Correlation functional ----------
Initalized PBE GGA exchange.
Initalized PBE GGA correlation.

---------- Setting up pseudopotentials ----------
Width of ionic core gaussian charges (only for fluid interactions / plotting) set to 0

Reading pseudopotential file '/home/andrewkim/jdftx_install/build/pseudopotentials/GBRV/ti_pbe.uspp':
  Title: Ti.  Created by USPP 7.3.6 on 31-3-15
  Reference state energy: -59.020943.  12 valence electrons in orbitals:
    |300>  occupation: 2  eigenvalue: -2.777623
    |310>  occupation: 6  eigenvalue: -1.894596
    |400>  occupation: 2  eigenvalue: -0.438610
    |320>  occupation: 1  eigenvalue: -0.583119
  lMax: 2  lLocal: 3  QijEcut: 6
  6 projectors sampled on a log grid with 597 points:
    l: 0  eig: -2.777624  rCut: 1.8
    l: 0  eig: -0.438611  rCut: 1.8
    l: 1  eig: -1.894596  rCut: 1.8
    l: 1  eig: 0.500000  rCut: 1.8
    l: 2  eig: -0.583118  rCut: 1.8
    l: 2  eig: 0.150000  rCut: 1.8
  Partial core density with radius 0.8
  Transforming core density to a uniform radial grid of dG=0.02 with 1273 points.
  Transforming local potential to a uniform radial grid of dG=0.02 with 1273 points.
  Transforming nonlocal projectors to a uniform radial grid of dG=0.02 with 432 points.
  Transforming density augmentations to a uniform radial grid of dG=0.02 with 1273 points.
  Transforming atomic orbitals to a uniform radial grid of dG=0.02 with 432 points.
  Core radius for overlap checks: 1.80 bohrs.

Reading pseudopotential file '/home/andrewkim/jdftx_install/build/pseudopotentials/GBRV/o_pbe.uspp':
  Title: O.  Created by USPP 7.3.6 on 3-2-2014
  Reference state energy: -15.894388.  6 valence electrons in orbitals:
    |200>  occupation: 2  eigenvalue: -0.878823
    |210>  occupation: 4  eigenvalue: -0.332131
  lMax: 2  lLocal: 2  QijEcut: 6
  5 projectors sampled on a log grid with 511 points:
    l: 0  eig: -0.878823  rCut: 1.25
    l: 0  eig: 0.000000  rCut: 1.25
    l: 1  eig: -0.332132  rCut: 1.25
    l: 1  eig: 0.000000  rCut: 1.25
    l: 2  eig: 1.000000  rCut: 1.25
  Partial core density with radius 0.7
  Transforming core density to a uniform radial grid of dG=0.02 with 1273 points.
  Transforming local potential to a uniform radial grid of dG=0.02 with 1273 points.
  Transforming nonlocal projectors to a uniform radial grid of dG=0.02 with 432 points.
  Transforming density augmentations to a uniform radial grid of dG=0.02 with 1273 points.
  Transforming atomic orbitals to a uniform radial grid of dG=0.02 with 432 points.
  Core radius for overlap checks: 1.25 bohrs.

Reading pseudopotential file '/home/andrewkim/jdftx_install/build/pseudopotentials/GBRV/s_pbe.uspp':
  Title: S.  Created by USPP 7.3.6 on 1-4-15
  Reference state energy: -11.898476.  6 valence electrons in orbitals:
    |300>  occupation: 2  eigenvalue: -0.634167
    |310>  occupation: 4  eigenvalue: -0.257568
  lMax: 2  lLocal: 3  QijEcut: 6
  6 projectors sampled on a log grid with 635 points:
    l: 0  eig: -0.634161  rCut: 1.5
    l: 0  eig: 1.500000  rCut: 1.5
    l: 1  eig: -0.257567  rCut: 1.5
    l: 1  eig: 1.500000  rCut: 1.5
    l: 2  eig: -1.000000  rCut: 1.5
    l: 2  eig: 1.500000  rCut: 1.5
  Partial core density with radius 1.15
  Transforming core density to a uniform radial grid of dG=0.02 with 1273 points.
  Transforming local potential to a uniform radial grid of dG=0.02 with 1273 points.
  Transforming nonlocal projectors to a uniform radial grid of dG=0.02 with 432 points.
  Transforming density augmentations to a uniform radial grid of dG=0.02 with 1273 points.
  Transforming atomic orbitals to a uniform radial grid of dG=0.02 with 432 points.
  Core radius for overlap checks: 1.50 bohrs.

Reading pseudopotential file '/home/andrewkim/jdftx_install/build/pseudopotentials/GBRV/na_pbe.uspp':
  Title: Na.  Created by USPP 7.3.6 on 23-9-15
  Reference state energy: -47.625620.  9 valence electrons in orbitals:
    |200>  occupation: 2  eigenvalue: -2.085638
    |210>  occupation: 6  eigenvalue: -1.053708
    |300>  occupation: 1  eigenvalue: -0.100838
  lMax: 2  lLocal: 0  QijEcut: 6
  5 projectors sampled on a log grid with 657 points:
    l: 0  eig: -2.085640  rCut: 1.37
    l: 0  eig: -0.100839  rCut: 1.37
    l: 1  eig: -1.053708  rCut: 1.47
    l: 1  eig: 0.500000  rCut: 1.47
    l: 2  eig: 0.750000  rCut: 2
  Transforming local potential to a uniform radial grid of dG=0.02 with 1273 points.
  Transforming nonlocal projectors to a uniform radial grid of dG=0.02 with 432 points.
  Transforming density augmentations to a uniform radial grid of dG=0.02 with 1273 points.
  Transforming atomic orbitals to a uniform radial grid of dG=0.02 with 432 points.
  Core radius for overlap checks: 2.00 bohrs.

Initialized 4 species with 57 total atoms.

Folded 1 k-points by 1x1x1 to 1 k-points.

---------- Setting up k-points, bands, fillings ----------
No reducable k-points. 
Computing the number of bands and number of electrons
Calculating initial fillings.
nElectrons: 456.000000   nBands: 338   nStates: 1

----- Setting up reduced wavefunction bases (one per k-point) -----
average nbasis = 109517.000 , ideal nbasis = 109484.012

---------- Setting up coulomb interaction ----------
Setting up double-sized grid for truncated Coulomb potentials:
R = 
[        26.04            0            0  ]
[            0        26.04            0  ]
[            0            0      75.5892  ]
unit cell volume = 51255.6
G =
[    0.24129          0          0  ]
[          0    0.24129          0  ]
[          0          0  0.0831228  ]
Chosen fftbox size, S = [  120  120  360  ]
Integer grid location selected as the embedding center:
   Grid: [  0  0  38  ]
   Lattice: [  0  0  0.21167  ]
   Cartesian: [  0  0  8  ]
Constructing Wigner-Seitz cell: 6 faces (6 quadrilaterals, 0 hexagons)
Range-separation parameter for embedded mesh potentials due to point charges: 0.587679 bohrs.
Initialized slab truncation along lattice direction 001

---------- Setting up 2D ewald sum ----------
Optimum gaussian width for ewald sums = 15.534366 bohr.
Real space sums over 225 unit cells with max indices [  7  7  0  ]
Reciprocal space sums over 81 terms with max indices [  4  4  0  ]

---------- Allocating electronic variables ----------
Initializing wave functions:  linear combination of atomic orbitals
Ti pseudo-atom occupations:   s ( 2 0 )  p ( 6 )  d ( 4 )
O pseudo-atom occupations:   s ( 2 )  p ( 4 )
S pseudo-atom occupations:   s ( 2 )  p ( 4 )
Na pseudo-atom occupations:   s ( 2 1 )  p ( 6 )
	FillingsUpdate:  mu: +0.177951893  nElectrons: 456.000000
LCAOMinimize: Iter:   0  F: -1706.4921836115652241  |grad|_K:  1.631e-02  alpha:  1.000e+00
	FillingsUpdate:  mu: +0.171159739  nElectrons: 456.000000
LCAOMinimize: Iter:   1  F: -1707.8484964119325014  |grad|_K:  1.616e-02  alpha:  4.362e-02  linmin: -1.935e-01  cgtest:  9.529e-01  t[s]:    549.77
LCAOMinimize: 	Wrong curvature in test step, increasing alphaT to 1.308550e-01.
	FillingsUpdate:  mu: +0.163002225  nElectrons: 456.000000
LCAOMinimize: Iter:   2  F: -1709.2541935448653021  |grad|_K:  1.621e-02  alpha: -6.809e-01  linmin: -1.900e-01  cgtest:  9.380e-01  t[s]:    703.15
	FillingsUpdate:  mu: +0.152769368  nElectrons: 456.000000
LCAOMinimize: Iter:   3  F: -1710.7833282953174603  |grad|_K:  1.642e-02  alpha:  4.516e-02  linmin: -1.905e-01  cgtest:  9.230e-01  t[s]:    872.80
LCAOMinimize: 	Wrong curvature in test step, increasing alphaT to 1.354663e-01.
	FillingsUpdate:  mu: +0.140219907  nElectrons: 456.000000
LCAOMinimize: Iter:   4  F: -1712.4147067735527799  |grad|_K:  1.674e-02  alpha: -4.001e-01  linmin: -1.949e-01  cgtest:  9.113e-01  t[s]:   1026.12
	FillingsUpdate:  mu: +0.122978854  nElectrons: 456.000000
LCAOMinimize: Iter:   5  F: -1714.3609590191883854  |grad|_K:  1.721e-02  alpha:  4.974e-02  linmin: -2.042e-01  cgtest:  8.903e-01  t[s]:   1196.63
LCAOMinimize: 	Wrong curvature in test step, increasing alphaT to 1.492297e-01.
	FillingsUpdate:  mu: +0.101119669  nElectrons: 456.000000
LCAOMinimize: Iter:   6  F: -1716.5169082123863973  |grad|_K:  1.775e-02  alpha: -2.988e-01  linmin: -2.166e-01  cgtest:  8.769e-01  t[s]:   1352.43
	FillingsUpdate:  mu: +0.068621988  nElectrons: 456.000000
LCAOMinimize: Iter:   7  F: -1719.3163944134807934  |grad|_K:  1.832e-02  alpha:  5.796e-02  linmin: -2.343e-01  cgtest:  8.435e-01  t[s]:   1524.07
LCAOMinimize: 	Wrong curvature in test step, increasing alphaT to 1.738932e-01.
	FillingsUpdate:  mu: +0.026863198  nElectrons: 456.000000
LCAOMinimize: Iter:   8  F: -1722.4516890695908842  |grad|_K:  1.853e-02  alpha: -2.752e-01  linmin: -2.542e-01  cgtest:  8.287e-01  t[s]:   1679.78
	FillingsUpdate:  mu: -0.027038328  nElectrons: 456.000000
LCAOMinimize: Iter:   9  F: -1726.1175811987222914  |grad|_K:  1.783e-02  alpha:  6.615e-02  linmin: -2.792e-01  cgtest:  8.002e-01  t[s]:   1852.24
LCAOMinimize: 	Wrong curvature in test step, increasing alphaT to 1.984577e-01.
	FillingsUpdate:  mu: -0.073724463  nElectrons: 456.000000
LCAOMinimize: Iter:  10  F: -1729.2977031238674499  |grad|_K:  1.569e-02  alpha: -7.035e-01  linmin: -2.963e-01  cgtest:  8.118e-01  t[s]:   2010.95
	FillingsUpdate:  mu: -0.091924001  nElectrons: 456.000000
LCAOMinimize: Iter:  11  F: -1730.8215743642485904  |grad|_K:  1.361e-02  alpha:  4.918e-02  linmin: -2.983e-01  cgtest:  8.928e-01  t[s]:   2182.08
LCAOMinimize: Encountered beta<0, resetting CG.
LCAOMinimize: 	Predicted alpha/alphaT>3.000000, increasing alphaT to 1.475319e-01.
LCAOMinimize: 	Step increased F by 1.588958e+01, reducing alpha to 3.413861e-02.
	FillingsUpdate:  mu: -0.098626009  nElectrons: 456.000000
LCAOMinimize: Iter:  12  F: -1731.5313293643125689  |grad|_K:  1.216e-02  alpha:  3.414e-02  linmin: -2.988e-01  cgtest:  9.410e-01  t[s]:   2525.81
LCAOMinimize: Encountered beta<0, resetting CG.
LCAOMinimize: 	Predicted alpha/alphaT>3.000000, increasing alphaT to 1.024158e-01.
LCAOMinimize: 	Predicted alpha/alphaT>3.000000, increasing alphaT to 3.072475e-01.
	FillingsUpdate:  mu: -0.103732428  nElectrons: 456.000000
LCAOMinimize: Iter:  13  F: -1732.5993763828805641  |grad|_K:  8.727e-03  alpha:  6.859e-02  linmin: -3.136e-01  cgtest:  8.851e-01  t[s]:   2775.77
LCAOMinimize: Encountered beta<0, resetting CG.
LCAOMinimize: 	Predicted alpha/alphaT>3.000000, increasing alphaT to 2.057824e-01.
	FillingsUpdate:  mu: -0.068022904  nElectrons: 456.000000
LCAOMinimize: Iter:  14  F: -1733.3807126235944907  |grad|_K:  1.986e-03  alpha:  1.363e-01  linmin: -9.612e-02  cgtest:  2.893e-01  t[s]:   2986.18
LCAOMinimize: Encountered beta<0, resetting CG.
	FillingsUpdate:  mu: -0.062732099  nElectrons: 456.000000
LCAOMinimize: Iter:  15  F: -1733.4058103885363380  |grad|_K:  1.301e-03  alpha:  1.130e-01  linmin: -1.691e-02  cgtest: -3.712e-02  t[s]:   3153.61
	FillingsUpdate:  mu: -0.058194948  nElectrons: 456.000000
LCAOMinimize: Iter:  16  F: -1733.4246488821611365  |grad|_K:  1.063e-03  alpha:  1.929e-01  linmin:  1.814e-02  cgtest:  6.237e-02  t[s]:   3324.19
	FillingsUpdate:  mu: -0.049321999  nElectrons: 456.000000
LCAOMinimize: Iter:  17  F: -1733.4373129630612311  |grad|_K:  3.400e-04  alpha:  2.064e-01  linmin: -5.427e-03  cgtest:  1.127e-01  t[s]:   3493.51
	FillingsUpdate:  mu: -0.048845073  nElectrons: 456.000000
LCAOMinimize: Iter:  18  F: -1733.4381550779039571  |grad|_K:  2.318e-04  alpha:  1.276e-01  linmin:  7.438e-04  cgtest: -3.165e-02  t[s]:   3663.24
	FillingsUpdate:  mu: -0.049537028  nElectrons: 456.000000
LCAOMinimize: Iter:  19  F: -1733.4387408022309955  |grad|_K:  2.004e-04  alpha:  1.913e-01  linmin:  4.134e-03  cgtest:  1.196e-02  t[s]:   3832.07
	FillingsUpdate:  mu: -0.049538702  nElectrons: 456.000000
LCAOMinimize: Iter:  20  F: -1733.4391711361768103  |grad|_K:  1.048e-04  alpha:  1.897e-01  linmin:  2.258e-03  cgtest:  4.282e-02  t[s]:   4001.91
	FillingsUpdate:  mu: -0.049671403  nElectrons: 456.000000
LCAOMinimize: Iter:  21  F: -1733.4392697345579109  |grad|_K:  3.295e-05  alpha:  1.574e-01  linmin: -4.052e-04  cgtest:  1.944e-02  t[s]:   4173.89
	FillingsUpdate:  mu: -0.049712669  nElectrons: 456.000000
LCAOMinimize: Iter:  22  F: -1733.4392755369162842  |grad|_K:  1.773e-05  alpha:  9.272e-02  linmin: -3.401e-04  cgtest:  1.428e-03  t[s]:   4344.16
	FillingsUpdate:  mu: -0.049624918  nElectrons: 456.000000
LCAOMinimize: Iter:  23  F: -1733.4392799967463361  |grad|_K:  1.371e-05  alpha:  2.468e-01  linmin:  1.163e-04  cgtest: -1.275e-03  t[s]:   4516.42
	FillingsUpdate:  mu: -0.049574923  nElectrons: 456.000000
LCAOMinimize: Iter:  24  F: -1733.4392824032286171  |grad|_K:  5.297e-06  alpha:  2.230e-01  linmin:  2.042e-04  cgtest: -9.214e-04  t[s]:   4685.80
	FillingsUpdate:  mu: -0.049582500  nElectrons: 456.000000
LCAOMinimize: Iter:  25  F: -1733.4392825843856372  |grad|_K:  2.678e-06  alpha:  1.124e-01  linmin:  3.552e-04  cgtest: -3.680e-04  t[s]:   4853.07
	FillingsUpdate:  mu: -0.049581805  nElectrons: 456.000000
LCAOMinimize: Iter:  26  F: -1733.4392826453363341  |grad|_K:  2.138e-06  alpha:  1.465e-01  linmin: -2.189e-03  cgtest:  1.108e-02  t[s]:   5021.91
LCAOMinimize: Converged (|Delta F|<1.000000e-06 for 2 iters).


---- Citations for features of the code used in this run ----

   Software package:
      R. Sundararaman, K. Letchworth-Weaver, K.A. Schwarz, D. Gunceler, Y. Ozhabes and T.A. Arias, 'JDFTx: software for joint density-functional theory', SoftwareX 6, 278 (2017)

   gga-PBE exchange-correlation functional:
      J.P. Perdew, K. Burke and M. Ernzerhof, Phys. Rev. Lett. 77, 3865 (1996)

   Pseudopotentials:
      KF Garrity, JW Bennett, KM Rabe and D Vanderbilt, Comput. Mater. Sci. 81, 446 (2014)

   Truncated Coulomb potentials:
      R. Sundararaman and T.A. Arias, Phys. Rev. B 87, 165122 (2013)

This list may not be complete. Please suggest additional citations or
report any other bugs at https://github.com/shankar1729/jdftx/issues

Initialization completed successfully at t[s]:   5150.10


-------- Electronic minimization -----------
Will mix electronic density at each iteration.
	FillingsUpdate:  mu: -0.049581805  nElectrons: 456.000000
	FillingsUpdate:  mu: -0.074732038  nElectrons: 456.000000
SCF: Cycle:  0   F: -1733.237099687608406   dF: +2.022e-01   |Residual|: 1.752e+00   |deigs|: 3.157e-02  t[s]:   6042.85
	FillingsUpdate:  mu: -0.114927324  nElectrons: 456.000000
SCF: Cycle:  1   F: -1734.169525713309895   dF: -9.324e-01   |Residual|: 8.483e-01   |deigs|: 5.806e-02  t[s]:   6845.64
	FillingsUpdate:  mu: -0.133736726  nElectrons: 456.000000
SCF: Cycle:  2   F: -1733.757040732112500   dF: +4.125e-01   |Residual|: 8.701e-01   |deigs|: 3.806e-02  t[s]:   7646.10
	FillingsUpdate:  mu: -0.135796612  nElectrons: 456.000000
SCF: Cycle:  3   F: -1735.717786295473161   dF: -1.961e+00   |Residual|: 1.944e-01   |deigs|: 1.600e-02  t[s]:   8445.19
	FillingsUpdate:  mu: -0.135683866  nElectrons: 456.000000
SCF: Cycle:  4   F: -1735.834616712159004   dF: -1.168e-01   |Residual|: 7.253e-02   |deigs|: 4.792e-03  t[s]:   9246.35
	FillingsUpdate:  mu: -0.137729915  nElectrons: 456.000000
SCF: Cycle:  5   F: -1735.836217566270079   dF: -1.601e-03   |Residual|: 6.459e-02   |deigs|: 3.416e-03  t[s]:  10038.39
	FillingsUpdate:  mu: -0.138201269  nElectrons: 456.000000
SCF: Cycle:  6   F: -1735.840066038888835   dF: -3.848e-03   |Residual|: 4.663e-02   |deigs|: 9.009e-04  t[s]:  10764.01
	FillingsUpdate:  mu: -0.138289960  nElectrons: 456.000000
SCF: Cycle:  7   F: -1735.848609576220269   dF: -8.544e-03   |Residual|: 1.071e-02   |deigs|: 8.256e-04  t[s]:  11540.73
	FillingsUpdate:  mu: -0.138788491  nElectrons: 456.000000
SCF: Cycle:  8   F: -1735.851319695145776   dF: -2.710e-03   |Residual|: 9.222e-03   |deigs|: 4.804e-04  t[s]:  12178.27
	FillingsUpdate:  mu: -0.139459421  nElectrons: 456.000000
SCF: Cycle:  9   F: -1735.852230844687028   dF: -9.111e-04   |Residual|: 9.564e-03   |deigs|: 8.016e-04  t[s]:  12835.09
	FillingsUpdate:  mu: -0.139800986  nElectrons: 456.000000
SCF: Cycle: 10   F: -1735.852711049128629   dF: -4.802e-04   |Residual|: 6.485e-03   |deigs|: 5.661e-04  t[s]:  13493.19
	FillingsUpdate:  mu: -0.140174863  nElectrons: 456.000000
SCF: Cycle: 11   F: -1735.853203490367832   dF: -4.924e-04   |Residual|: 4.899e-03   |deigs|: 4.600e-04  t[s]:  14130.69
	FillingsUpdate:  mu: -0.140440225  nElectrons: 456.000000
SCF: Cycle: 12   F: -1735.853381603113121   dF: -1.781e-04   |Residual|: 4.800e-03   |deigs|: 2.589e-04  t[s]:  14760.32
	FillingsUpdate:  mu: -0.140766003  nElectrons: 456.000000
SCF: Cycle: 13   F: -1735.853528461789210   dF: -1.469e-04   |Residual|: 3.616e-03   |deigs|: 3.922e-04  t[s]:  15391.78
	FillingsUpdate:  mu: -0.140868706  nElectrons: 456.000000
SCF: Cycle: 14   F: -1735.853605577087592   dF: -7.712e-05   |Residual|: 2.810e-03   |deigs|: 2.164e-04  t[s]:  16021.42
	FillingsUpdate:  mu: -0.141170405  nElectrons: 456.000000
SCF: Cycle: 15   F: -1735.853620865755602   dF: -1.529e-05   |Residual|: 3.192e-03   |deigs|: 3.548e-04  t[s]:  16654.95
	FillingsUpdate:  mu: -0.141486649  nElectrons: 456.000000
SCF: Cycle: 16   F: -1735.853629882987661   dF: -9.017e-06   |Residual|: 2.316e-03   |deigs|: 3.485e-04  t[s]:  17310.44
	FillingsUpdate:  mu: -0.141789181  nElectrons: 456.000000
SCF: Cycle: 17   F: -1735.853643370236568   dF: -1.349e-05   |Residual|: 1.905e-03   |deigs|: 3.415e-04  t[s]:  17945.18
	FillingsUpdate:  mu: -0.141995575  nElectrons: 456.000000
SCF: Cycle: 18   F: -1735.853653013396979   dF: -9.643e-06   |Residual|: 1.538e-03   |deigs|: 2.294e-04  t[s]:  18560.78
	FillingsUpdate:  mu: -0.142479226  nElectrons: 456.000000
SCF: Cycle: 19   F: -1735.853644227347786   dF: +8.786e-06   |Residual|: 1.489e-03   |deigs|: 4.895e-04  t[s]:  19169.89
	FillingsUpdate:  mu: -0.142810256  nElectrons: 456.000000
SCF: Cycle: 20   F: -1735.853650895446663   dF: -6.668e-06   |Residual|: 9.148e-04   |deigs|: 3.449e-04  t[s]:  19779.11
	FillingsUpdate:  mu: -0.143200587  nElectrons: 456.000000
SCF: Cycle: 21   F: -1735.853658028213658   dF: -7.133e-06   |Residual|: 9.178e-04   |deigs|: 4.039e-04  t[s]:  20410.49
	FillingsUpdate:  mu: -0.143505222  nElectrons: 456.000000
SCF: Cycle: 22   F: -1735.853660200994227   dF: -2.173e-06   |Residual|: 8.912e-04   |deigs|: 3.102e-04  t[s]:  21016.45
	FillingsUpdate:  mu: -0.143784702  nElectrons: 456.000000
SCF: Cycle: 23   F: -1735.853663694784245   dF: -3.494e-06   |Residual|: 7.797e-04   |deigs|: 2.785e-04  t[s]:  21641.78
	FillingsUpdate:  mu: -0.144081486  nElectrons: 456.000000
SCF: Cycle: 24   F: -1735.853666381306539   dF: -2.687e-06   |Residual|: 7.272e-04   |deigs|: 3.044e-04  t[s]:  22249.01
	FillingsUpdate:  mu: -0.144433011  nElectrons: 456.000000
SCF: Cycle: 25   F: -1735.853668204048290   dF: -1.823e-06   |Residual|: 7.081e-04   |deigs|: 3.686e-04  t[s]:  22858.53
	FillingsUpdate:  mu: -0.145136192  nElectrons: 456.000000
SCF: Cycle: 26   F: -1735.853670084804435   dF: -1.881e-06   |Residual|: 6.430e-04   |deigs|: 7.114e-04  t[s]:  23492.26
	FillingsUpdate:  mu: -0.145360067  nElectrons: 456.000000
SCF: Cycle: 27   F: -1735.853669348290623   dF: +7.365e-07   |Residual|: 5.773e-04   |deigs|: 2.152e-04  t[s]:  24103.37
	FillingsUpdate:  mu: -0.145802967  nElectrons: 456.000000
SCF: Cycle: 28   F: -1735.853670721739263   dF: -1.373e-06   |Residual|: 5.886e-04   |deigs|: 4.821e-04  t[s]:  24719.71
	FillingsUpdate:  mu: -0.146034043  nElectrons: 456.000000
SCF: Cycle: 29   F: -1735.853671329107783   dF: -6.074e-07   |Residual|: 4.417e-04   |deigs|: 2.630e-04  t[s]:  25323.75
	FillingsUpdate:  mu: -0.146271727  nElectrons: 456.000000
SCF: Cycle: 30   F: -1735.853671104960540   dF: +2.241e-07   |Residual|: 3.791e-04   |deigs|: 2.327e-04  t[s]:  25953.66
	FillingsUpdate:  mu: -0.146374416  nElectrons: 456.000000
SCF: Cycle: 31   F: -1735.853671513719064   dF: -4.088e-07   |Residual|: 3.433e-04   |deigs|: 1.135e-04  t[s]:  26558.91
	FillingsUpdate:  mu: -0.146450481  nElectrons: 456.000000
SCF: Cycle: 32   F: -1735.853672181383899   dF: -6.677e-07   |Residual|: 2.913e-04   |deigs|: 8.671e-05  t[s]:  27191.16
	FillingsUpdate:  mu: -0.146530640  nElectrons: 456.000000
SCF: Cycle: 33   F: -1735.853672647604299   dF: -4.662e-07   |Residual|: 1.947e-04   |deigs|: 9.556e-05  t[s]:  27805.89
	FillingsUpdate:  mu: -0.146588563  nElectrons: 456.000000
SCF: Cycle: 34   F: -1735.853672837293971   dF: -1.897e-07   |Residual|: 1.546e-04   |deigs|: 6.432e-05  t[s]:  28412.83
	FillingsUpdate:  mu: -0.146597493  nElectrons: 456.000000
SCF: Cycle: 35   F: -1735.853672963529107   dF: -1.262e-07   |Residual|: 1.119e-04   |deigs|: 3.636e-05  t[s]:  29022.72
	FillingsUpdate:  mu: -0.146610327  nElectrons: 456.000000
SCF: Cycle: 36   F: -1735.853673001536208   dF: -3.801e-08   |Residual|: 9.860e-05   |deigs|: 4.274e-05  t[s]:  29649.62
	FillingsUpdate:  mu: -0.146605548  nElectrons: 456.000000
SCF: Cycle: 37   F: -1735.853673038157467   dF: -3.662e-08   |Residual|: 6.228e-05   |deigs|: 4.314e-05  t[s]:  30282.13
	FillingsUpdate:  mu: -0.146603866  nElectrons: 456.000000
SCF: Cycle: 38   F: -1735.853673051933129   dF: -1.378e-08   |Residual|: 6.111e-05   |deigs|: 2.076e-05  t[s]:  30909.30
	FillingsUpdate:  mu: -0.146585324  nElectrons: 456.000000
SCF: Cycle: 39   F: -1735.853673060647225   dF: -8.714e-09   |Residual|: 4.792e-05   |deigs|: 3.497e-05  t[s]:  31540.88
	FillingsUpdate:  mu: -0.146585468  nElectrons: 456.000000
SCF: Cycle: 40   F: -1735.853673067409318   dF: -6.762e-09   |Residual|: 3.714e-05   |deigs|: 8.546e-06  t[s]:  32168.64
SCF: Converged (|Delta E|<1.000000e-08 for 2 iters).

Setting wave functions to eigenvectors of Hamiltonian

# Ionic positions in cartesian coordinates:
ion Ti   0.000000174975000  -0.000000174975000   2.000000000000000 0
ion Ti   4.340445422775000   4.340445072825000   4.795024053800001 0
ion Ti   0.000000174975000   8.680909217924999   2.000000000000000 0
ion Ti   4.340445422775000  13.021354465725000   4.795024053800001 0
ion Ti   0.000000174975000  17.361818610825001   2.000000000000000 0
ion Ti   4.340445422775000  21.702263858624999   4.795024053800001 0
ion Ti   8.680909567874998  -0.000000174975000   2.000000000000000 0
ion Ti  13.021354815675002   4.340445072825000   4.795024053800001 0
ion Ti   8.680909567874998   8.680909217924999   2.000000000000000 0
ion Ti  13.021354815675002  13.021354465725000   4.795024053800001 0
ion Ti   8.680909567874998  17.361818610825001   2.000000000000000 0
ion Ti  13.021364264325003  21.702263858624999   4.795024053800001 0
ion Ti  17.361818960775000  -0.000000174975000   2.000000000000000 0
ion Ti  21.702264208574999   4.340445072825000   4.795024053800001 0
ion Ti  17.361818960775000   8.680909217924999   2.000000000000000 0
ion Ti  21.702264208574999  13.021363914375000   4.795024053800001 0
ion Ti  17.361818960775000  17.361818610825001   2.000000000000000 0
ion Ti  21.702264208574999  21.702263858624999   4.795024053800001 0
ion O   2.650289808075000   2.650289458125000   2.000000000000000 0
ion O   6.030619934775000   6.030619584825001   2.000000000000000 0
ion O   1.690174686975000   6.990734705924999   4.795024053800001 0
ion O   6.990735055874999   1.690174337025000   4.795024053800001 0
ion O   2.650289808075000  11.331198851025000   2.000000000000000 0
ion O   6.030619934775000  14.711528977725004   2.000000000000000 0
ion O   1.690174686975000  15.671644098825000   4.795024053800001 0
ion O   6.990735055874999  10.371083729925001   4.795024053800001 0
ion O   2.650289808075000  20.012108243924999   2.000000000000000 0
ion O   6.030619934775000  23.392438370625001   2.000000000000000 0
ion O   1.690174686975000  24.352553491725004   4.795024053800001 0
ion O   6.990735055874999  19.051993122824996   4.795024053800001 0
ion O  11.331199200975000   2.650289458125000   2.000000000000000 0
ion O  14.711529327675001   6.030619584825001   2.000000000000000 0
ion O  10.371084079875001   6.990734705924999   4.795024053800001 0
ion O  15.671644448774998   1.690174337025000   4.795024053800001 0
ion O  11.331199200975000  11.331198851025000   2.000000000000000 0
ion O  14.711529327675001  14.711528977725004   2.000000000000000 0
ion O  10.371084079875001  15.671644098825000   4.795024053800001 0
ion O  15.671644448774998  10.371083729925001   4.795024053800001 0
ion O  11.331199200975000  20.012108243924999   2.000000000000000 0
ion O  14.711529327675001  23.392438370625001   2.000000000000000 0
ion O  10.371084079875001  24.352553491725004   4.795024053800001 0
ion O  15.671644448774998  19.051993122824996   4.795024053800001 0
ion O  20.012108593874995   2.650289458125000   2.000000000000000 0
ion O  23.392438720575004   6.030619584825001   2.000000000000000 0
ion O  19.051993472774999   6.990734705924999   4.795024053800001 0
ion O  24.352553841675000   1.690174337025000   4.795024053800001 0
ion O  20.012108593874995  11.331198851025000   2.000000000000000 0
ion O  23.392438720575004  14.711528977725004   2.000000000000000 0
ion O  19.051993472774999  15.671644098825000   4.795024053800001 0
ion O  24.352553841675000  10.371083729925001   4.795024053800001 0
ion O  20.012108593874995  20.012108243924999   2.000000000000000 0
ion O  23.392438720575004  23.392438370625001   2.000000000000000 0
ion O  19.051993472774999  24.352553491725004   4.795024053800001 0
ion O  24.352553841675000  19.051993122824996   4.795024053800001 0
ion S  17.001371685599999  17.205462525600002  11.541908175499998 0
ion Na  14.117719294800001  19.615832037899999   8.847625627999999 0
ion Na  19.729064659500001  14.196539933100000   9.329960313200001 0

# Forces in Cartesian coordinates:
force Ti   0.000501412425626   0.000559663016701   0.128567837397935 0
force Ti  -0.000109857696522  -0.000031944323229  -0.127322051585792 0
force Ti   0.001204501008830  -0.001194542084960   0.127661187670505 0
force Ti   0.000174184644122  -0.000854901733273  -0.127051484593187 0
force Ti   0.000877185162963   0.000144405828884   0.128018147501757 0
force Ti  -0.001488380121223   0.000942942385417  -0.127411935546379 0
force Ti  -0.001485260441071   0.001527658410524   0.127480656685394 0
force Ti  -0.000687272923049   0.000340222247990  -0.126999018866022 0
force Ti  -0.000710881204079  -0.000753270654129   0.128851542744251 0
force Ti  -0.001614328633485  -0.003000799261356  -0.124450472968609 0
force Ti  -0.002003834025425   0.000109529261907   0.126541568242287 0
force Ti  -0.013879083479035   0.025833295268916  -0.169841971857751 0
force Ti   0.000738891516839   0.001491512142136   0.128268901744502 0
force Ti   0.000808802490888  -0.001219753063877  -0.127367665889936 0
force Ti   0.000327890837647  -0.001267701693779   0.126899882028900 0
force Ti   0.016407953633918  -0.010441329031649  -0.157044379279321 0
force Ti   0.000906475981972  -0.001023099311743   0.118585197366009 0
force Ti   0.001454566403404   0.001475026557064  -0.123651155185280 0
force O  -0.019379489040661  -0.019389104027690   0.015214085436338 0
force O   0.019634432775246   0.019637220440592   0.015156244166224 0
force O   0.019212465409715  -0.019190727165235  -0.015522500601148 0
force O  -0.019085981823194   0.019098310492734  -0.015641544862838 0
force O  -0.019621723144287  -0.019373275484927   0.015245382399687 0
force O   0.020370369084259   0.020190855747622   0.015037478589636 0
force O   0.019257572260101  -0.019510856578650  -0.014918546831750 0
force O  -0.019530461129048   0.019673076535494  -0.015657067562853 0
force O  -0.019429308932411  -0.019592731032836   0.015241296740628 0
force O   0.019812105901416   0.019341134104173   0.015179783429284 0
force O   0.019887810947069  -0.019925709349692  -0.015465212210763 0
force O  -0.018307365395286   0.019204526040730  -0.014303888746644 0
force O  -0.019455922918820  -0.019800805991284   0.015190187071925 0
force O   0.019951782844667   0.020078360002298   0.015115153117584 0
force O   0.019619097989289  -0.019521090282877  -0.015698242738909 0
force O  -0.019460169137018   0.019121018485740  -0.015163384150190 0
force O  -0.018569802557063  -0.018482476788225   0.015661355822242 0
force O   0.021913028441130   0.022226291147382   0.015227717627413 0
force O   0.021165924454719  -0.017690699203108  -0.012146062252285 0
force O  -0.018335038735724   0.020785081047562  -0.012981048516120 0
force O  -0.019135727886055  -0.020109255715752   0.015506053442894 0
force O   0.019335011208246   0.018488174646224   0.015336088436031 0
force O   0.021757174933264  -0.022190397856592  -0.011924981626897 0
force O  -0.023666336540601   0.022245785784871  -0.006799167491074 0
force O  -0.019745225913325  -0.019610582930215   0.015137683779657 0
force O   0.019332163790285   0.019705924738351   0.015189509006291 0
force O   0.019312050774348  -0.018615463224729  -0.014322951094680 0
force O  -0.019862089932727   0.019820718844049  -0.015501126507376 0
force O  -0.020535872686934  -0.019723550259890   0.014862187640409 0
force O   0.019376961367618   0.020190202449432   0.014641520825794 0
force O   0.022222276630261  -0.023624031982052  -0.004425568995842 0
force O  -0.021526327460656   0.021224641445234  -0.012259795498836 0
force O  -0.022476246055813  -0.022226229817650   0.015038661936308 0
force O   0.018707067139964   0.018687614430183   0.015353343582810 0
force O   0.018720964591204  -0.020138547075024  -0.015263905101992 0
[...]
ion O   1.690174686975000  24.352553491725004   4.795024053800001 0
ion O   6.990735055874999  19.051993122824996   4.795024053800001 0
ion O  11.331199200975000   2.650289458125000   2.000000000000000 0
ion O  14.711529327675001   6.030619584825001   2.000000000000000 0
ion O  10.371084079875001   6.990734705924999   4.795024053800001 0
ion O  15.671644448774998   1.690174337025000   4.795024053800001 0
ion O  11.331199200975000  11.331198851025000   2.000000000000000 0
ion O  14.711529327675001  14.711528977725004   2.000000000000000 0
ion O  10.371084079875001  15.671644098825000   4.795024053800001 0
ion O  15.671644448774998  10.371083729925001   4.795024053800001 0
ion O  11.331199200975000  20.012108243924999   2.000000000000000 0
ion O  14.711529327675001  23.392438370625001   2.000000000000000 0
ion O  10.371084079875001  24.352553491725004   4.795024053800001 0
ion O  15.671644448774998  19.051993122824996   4.795024053800001 0
ion O  20.012108593874995   2.650289458125000   2.000000000000000 0
ion O  23.392438720575004   6.030619584825001   2.000000000000000 0
ion O  19.051993472774999   6.990734705924999   4.795024053800001 0
ion O  24.352553841675000   1.690174337025000   4.795024053800001 0
ion O  20.012108593874995  11.331198851025000   2.000000000000000 0
ion O  23.392438720575004  14.711528977725004   2.000000000000000 0
ion O  19.051993472774999  15.671644098825000   4.795024053800001 0
ion O  24.352553841675000  10.371083729925001   4.795024053800001 0
ion O  20.012108593874995  20.012108243924999   2.000000000000000 0
ion O  23.392438720575004  23.392438370625001   2.000000000000000 0
ion O  19.051993472774999  24.352553491725004   4.795024053800001 0
ion O  24.352553841675000  19.051993122824996   4.795024053800001 0
ion S  13.001795487639969  13.707203836033004   9.353292859439135 1
ion Na   9.079324347362860  16.867767651252763   8.424156995812044 1
ion Na  16.746140586915249  16.669931796564676   8.171974170681482 1

# Forces in Cartesian coordinates:
force Ti  -0.000006209926480   0.002291652134501   0.127625491828193 0
force Ti   0.001223813405421   0.002067221905597  -0.128603659188728 0
force Ti   0.000401155674078  -0.001426081574907   0.127888140923275 0
force Ti  -0.001346170119596  -0.008941522566903  -0.132193267982311 0
force Ti   0.000133778762090  -0.000576646254721   0.126648356068254 0
force Ti  -0.008624064474252   0.009402270949229  -0.133614381149511 0
force Ti  -0.000136365038955   0.004002194222886   0.126959980128076 0
force Ti  -0.000576081863556   0.005945327252157  -0.125984754440230 0
force Ti   0.008496446667676   0.005580443814052   0.128016272352349 0
force Ti   0.006114547196395  -0.014238933952351  -0.065803943408898 0
force Ti   0.006478441728139  -0.009713444751514   0.116337580495728 0
force Ti  -0.004350499470334   0.012172074659069  -0.136824892945284 0
force Ti   0.000010586094980   0.003692845565135   0.127966232033907 0
force Ti  -0.002066466676206   0.002334784987234  -0.126657506061218 0
force Ti  -0.007967194323823   0.004404967609559   0.133670262098326 0
force Ti   0.007151445339826  -0.012705145877838  -0.134511833373209 0
force Ti  -0.005888499184534  -0.006658694977908   0.108732617138885 0
force Ti   0.003391281112921   0.004826718805080  -0.131699231910726 0
force O  -0.020133773420528  -0.020499199949145   0.014907026944995 0
force O   0.016434412729122   0.016775505349369   0.016567427918791 0
force O   0.019005664862373  -0.019285112392155  -0.015333710282071 0
force O  -0.018906743515405   0.018150283445886  -0.015469453417182 0
force O  -0.019525550740904  -0.018849500148382   0.015273305828210 0
force O   0.019636790464370   0.021779873345508   0.016011857564112 0
force O   0.020228556445396  -0.018675064809884  -0.012604192395978 0
force O  -0.023412054264279   0.022408855766276  -0.014386752738320 0
force O  -0.018239839486731  -0.019154892378526   0.016516058564775 0
force O   0.018696649790173   0.017114840746837   0.016711358928151 0
force O   0.021597458912411  -0.021960952687606  -0.013173107666120 0
force O  -0.018256960448829   0.017967287433146   0.005327133909121 0
force O  -0.020691833797321  -0.021558765495352   0.014513150759029 0
force O   0.018524847587997   0.016988815915075   0.015679255515208 0
force O   0.019033229874468  -0.021882334170655  -0.017562437072382 0
force O  -0.018385470246839   0.017563654421154  -0.015855462649739 0
force O  -0.033688775978800  -0.031171754266890   0.002360367568801 0
force O   0.033616212264275   0.035566496255347   0.005139034688436 0
force O  -0.001221311198849   0.000194106490541  -0.040956239857881 0
force O  -0.005688083854515   0.007278133757743  -0.033173834470724 0
force O  -0.018742785855714  -0.018317065757880   0.017377098546868 0
force O   0.018306193452227   0.016992277338222   0.016538165846029 0
force O   0.021603374285579  -0.023277792280874  -0.011271374918054 0
force O  -0.018087504398683   0.021865838490001  -0.003742445905445 0
force O  -0.019961259632186  -0.020617248051446   0.014954394978826 0
force O   0.019785259673567   0.019832381952536   0.015037459897897 0
force O   0.022271056592918  -0.022042845439542  -0.014472486940831 0
force O  -0.018984391684234   0.018663169522936  -0.015370514474520 0
force O  -0.015255201974429  -0.015148197476134   0.017492549647504 0
force O   0.018738294989826   0.019910617253106   0.016113924699272 0
force O   0.021880419467588  -0.017237455310284  -0.004714431867638 0
force O  -0.021137711954498   0.021752753542455  -0.013586771588430 0
force O  -0.020373119240874  -0.020273831886758   0.016428227863120 0
force O   0.018929955456417   0.018549029508432   0.015551704413432 0
force O   0.020189541632234  -0.021798371507672  -0.012707148102550 0
force O  -0.020838465479057   0.019547754022222  -0.012685418122211 0
force S  -0.000108188294952  -0.000162271919117   0.000107608588477 1
force Na  -0.000008367862176  -0.000113679310194  -0.000010332712001 1
force Na   0.000142988213329   0.000107148476411   0.000170648520653 1

# Energy components:
   Eewald =    -3091.2183790690814931
       EH =    -1639.5586045856441615
     Eloc =     2733.7442718028096351
      Enl =       36.5755593584534608
      Exc =     -309.4094592681409495
 Exc_core =       27.6791601498402002
       KE =      506.2812730125215239
-------------------------------------
     Etot =    -1735.9061785992416844
       TS =        0.0984503313543639
-------------------------------------
        F =    -1736.0046289305960272

IonicMinimize: Iter:  39  F: -1736.004628930596027  |grad|_K:  1.173e-04  alpha:  2.007e+01  linmin:  2.521e-05  t[s]: 2599651.35

#--- Lowdin population analysis ---
# oxidation-state Ti +1.586 +1.585 +1.586 +1.560 +1.587 +1.570 +1.587 +1.593 +1.588 +1.568 +1.585 +1.553 +1.586 +1.586 +1.578 +1.578 +1.597 +1.562
# oxidation-state O -0.743 -0.745 -0.743 -0.745 -0.739 -0.743 -0.754 -0.731 -0.743 -0.743 -0.744 -0.815 -0.743 -0.740 -0.725 -0.745 -0.775 -0.772 -0.789 -0.699 -0.745 -0.741 -0.749 -0.814 -0.742 -0.742 -0.739 -0.745 -0.741 -0.743 -0.817 -0.741 -0.748 -0.741 -0.750 -0.753
# oxidation-state S -0.892
# oxidation-state Na +0.717 +0.706


-------- Electronic minimization -----------
Will mix electronic density at each iteration.
	FillingsUpdate:  mu: -0.136894610  nElectrons: 456.000000
	FillingsUpdate:  mu: -0.136922815  nElectrons: 456.000000
SCF: Cycle:  0   F: -1736.004625834179706   dF: +2.165e-06   |Residual|: 8.903e-04   |deigs|: 4.611e-08  t[s]: 2600421.04
	FillingsUpdate:  mu: -0.136921700  nElectrons: 456.000000
SCF: Cycle:  1   F: -1736.004628450134305   dF: -2.616e-06   |Residual|: 9.108e-04   |deigs|: 3.076e-05  t[s]: 2600881.85
	FillingsUpdate:  mu: -0.136920051  nElectrons: 456.000000
SCF: Cycle:  2   F: -1736.004629750275399   dF: -1.300e-06   |Residual|: 3.173e-04   |deigs|: 1.867e-05  t[s]: 2601343.30
	FillingsUpdate:  mu: -0.136920112  nElectrons: 456.000000
SCF: Cycle:  3   F: -1736.004629988510715   dF: -2.382e-07   |Residual|: 1.647e-04   |deigs|: 6.837e-06  t[s]: 2601803.46
	FillingsUpdate:  mu: -0.136918480  nElectrons: 456.000000
SCF: Cycle:  4   F: -1736.004630094673757   dF: -1.062e-07   |Residual|: 9.082e-05   |deigs|: 4.506e-06  t[s]: 2602267.50
	FillingsUpdate:  mu: -0.136918137  nElectrons: 456.000000
SCF: Cycle:  5   F: -1736.004630124468122   dF: -2.979e-08   |Residual|: 5.504e-05   |deigs|: 2.829e-06  t[s]: 2602730.15
	FillingsUpdate:  mu: -0.136917843  nElectrons: 456.000000
SCF: Cycle:  6   F: -1736.004630140562540   dF: -1.609e-08   |Residual|: 4.360e-05   |deigs|: 2.157e-06  t[s]: 2603190.72
	FillingsUpdate:  mu: -0.136916731  nElectrons: 456.000000
SCF: Cycle:  7   F: -1736.004630152072878   dF: -1.151e-08   |Residual|: 2.523e-05   |deigs|: 4.362e-06  t[s]: 2603807.27
	FillingsUpdate:  mu: -0.136916421  nElectrons: 456.000000
SCF: Cycle:  8   F: -1736.004630151991933   dF: +8.095e-11   |Residual|: 1.901e-05   |deigs|: 1.655e-06  t[s]: 2604428.32
	FillingsUpdate:  mu: -0.136916065  nElectrons: 456.000000
SCF: Cycle:  9   F: -1736.004630154462802   dF: -2.471e-09   |Residual|: 1.448e-05   |deigs|: 1.164e-06  t[s]: 2605089.75
	FillingsUpdate:  mu: -0.136915346  nElectrons: 456.000000
SCF: Cycle: 10   F: -1736.004630156430949   dF: -1.968e-09   |Residual|: 1.506e-05   |deigs|: 2.969e-06  t[s]: 2605720.17
SCF: Converged (|Delta E|<1.000000e-08 for 2 iters).

Setting wave functions to eigenvectors of Hamiltonian

-------- Electronic minimization -----------
Will mix electronic density at each iteration.
	FillingsUpdate:  mu: -0.136915346  nElectrons: 456.000000
	FillingsUpdate:  mu: -0.136908175  nElectrons: 456.000000
SCF: Cycle:  0   F: -1736.004629900618056   dF: +2.555e-07   |Residual|: 1.653e-04   |deigs|: 5.874e-08  t[s]: 2606527.10
	FillingsUpdate:  mu: -0.136908303  nElectrons: 456.000000
SCF: Cycle:  1   F: -1736.004629994024981   dF: -9.341e-08   |Residual|: 2.501e-04   |deigs|: 9.242e-06  t[s]: 2606992.40
	FillingsUpdate:  mu: -0.136907954  nElectrons: 456.000000
SCF: Cycle:  2   F: -1736.004630148569504   dF: -1.545e-07   |Residual|: 4.152e-05   |deigs|: 5.692e-06  t[s]: 2607459.36
	FillingsUpdate:  mu: -0.136908293  nElectrons: 456.000000
SCF: Cycle:  3   F: -1736.004630149127252   dF: -5.577e-10   |Residual|: 2.346e-05   |deigs|: 1.035e-06  t[s]: 2607924.74
	FillingsUpdate:  mu: -0.136908270  nElectrons: 456.000000
SCF: Cycle:  4   F: -1736.004630154764982   dF: -5.638e-09   |Residual|: 1.915e-05   |deigs|: 1.137e-06  t[s]: 2608563.60
SCF: Converged (|Delta E|<1.000000e-08 for 2 iters).

Setting wave functions to eigenvectors of Hamiltonian

# Ionic positions in cartesian coordinates:
ion Ti   0.000000174975000  -0.000000174975000   2.000000000000000 0
ion Ti   4.340445422775000   4.340445072825000   4.795024053800001 0
ion Ti   0.000000174975000   8.680909217924999   2.000000000000000 0
ion Ti   4.340445422775000  13.021354465725000   4.795024053800001 0
ion Ti   0.000000174975000  17.361818610825001   2.000000000000000 0
ion Ti   4.340445422775000  21.702263858624999   4.795024053800001 0
ion Ti   8.680909567874998  -0.000000174975000   2.000000000000000 0
ion Ti  13.021354815675002   4.340445072825000   4.795024053800001 0
ion Ti   8.680909567874998   8.680909217924999   2.000000000000000 0
ion Ti  13.021354815675002  13.021354465725000   4.795024053800001 0
ion Ti   8.680909567874998  17.361818610825001   2.000000000000000 0
ion Ti  13.021364264325003  21.702263858624999   4.795024053800001 0
ion Ti  17.361818960775000  -0.000000174975000   2.000000000000000 0
ion Ti  21.702264208574999   4.340445072825000   4.795024053800001 0
ion Ti  17.361818960775000   8.680909217924999   2.000000000000000 0
ion Ti  21.702264208574999  13.021363914375000   4.795024053800001 0
ion Ti  17.361818960775000  17.361818610825001   2.000000000000000 0
ion Ti  21.702264208574999  21.702263858624999   4.795024053800001 0
ion O   2.650289808075000   2.650289458125000   2.000000000000000 0
ion O   6.030619934775000   6.030619584825001   2.000000000000000 0
ion O   1.690174686975000   6.990734705924999   4.795024053800001 0
ion O   6.990735055874999   1.690174337025000   4.795024053800001 0
ion O   2.650289808075000  11.331198851025000   2.000000000000000 0
ion O   6.030619934775000  14.711528977725004   2.000000000000000 0
ion O   1.690174686975000  15.671644098825000   4.795024053800001 0
ion O   6.990735055874999  10.371083729925001   4.795024053800001 0
ion O   2.650289808075000  20.012108243924999   2.000000000000000 0
ion O   6.030619934775000  23.392438370625001   2.000000000000000 0
ion O   1.690174686975000  24.352553491725004   4.795024053800001 0
ion O   6.990735055874999  19.051993122824996   4.795024053800001 0
ion O  11.331199200975000   2.650289458125000   2.000000000000000 0
ion O  14.711529327675001   6.030619584825001   2.000000000000000 0
ion O  10.371084079875001   6.990734705924999   4.795024053800001 0
ion O  15.671644448774998   1.690174337025000   4.795024053800001 0
ion O  11.331199200975000  11.331198851025000   2.000000000000000 0
ion O  14.711529327675001  14.711528977725004   2.000000000000000 0
ion O  10.371084079875001  15.671644098825000   4.795024053800001 0
ion O  15.671644448774998  10.371083729925001   4.795024053800001 0
ion O  11.331199200975000  20.012108243924999   2.000000000000000 0
ion O  14.711529327675001  23.392438370625001   2.000000000000000 0
ion O  10.371084079875001  24.352553491725004   4.795024053800001 0
ion O  15.671644448774998  19.051993122824996   4.795024053800001 0
ion O  20.012108593874995   2.650289458125000   2.000000000000000 0
ion O  23.392438720575004   6.030619584825001   2.000000000000000 0
ion O  19.051993472774999   6.990734705924999   4.795024053800001 0
ion O  24.352553841675000   1.690174337025000   4.795024053800001 0
ion O  20.012108593874995  11.331198851025000   2.000000000000000 0
ion O  23.392438720575004  14.711528977725004   2.000000000000000 0
ion O  19.051993472774999  15.671644098825000   4.795024053800001 0
ion O  24.352553841675000  10.371083729925001   4.795024053800001 0
ion O  20.012108593874995  20.012108243924999   2.000000000000000 0
ion O  23.392438720575004  23.392438370625001   2.000000000000000 0
ion O  19.051993472774999  24.352553491725004   4.795024053800001 0
ion O  24.352553841675000  19.051993122824996   4.795024053800001 0
ion S  13.002479456895969  13.702212640181052   9.355668309214190 1
ion Na   9.077171400009375  16.859845993377192   8.421310210701535 1
ion Na  16.746175056555415  16.670796536559944   8.174419357007713 1

# Forces in Cartesian coordinates:
force Ti   0.000005517385830   0.002296211986484   0.127632210656196 0
force Ti   0.001232443693941   0.002076607577009  -0.128591946932781 0
force Ti   0.000410366490658  -0.001425152510603   0.127897824347110 0
force Ti  -0.001380828140390  -0.008971709593866  -0.132205914990083 0
force Ti   0.000144305294514  -0.000583068722715   0.126651247728751 0
force Ti  -0.008612241165376   0.009400878187216  -0.133601628411146 0
force Ti  -0.000137043634718   0.004008089176919   0.126975842892390 0
force Ti  -0.000588141768348   0.005956336528184  -0.125974794327388 0
force Ti   0.008489675919734   0.005567250449138   0.128024185058228 0
force Ti   0.006110349182764  -0.014283159479593  -0.065731876818195 0
force Ti   0.006452350215088  -0.009686106774056   0.116326452645739 0
force Ti  -0.004381316270601   0.012175271362371  -0.136810681002963 0
force Ti  -0.000000013409180   0.003698799242473   0.127970528150340 0
force Ti  -0.002062679222854   0.002348120116582  -0.126646884082072 0
force Ti  -0.007972092439624   0.004406058615690   0.133675435434142 0
force Ti   0.007149921155438  -0.012708727110276  -0.134499218048378 0
force Ti  -0.005883987356660  -0.006670836447145   0.108750544686838 0
force Ti   0.003398910696667   0.004823632647734  -0.131697875519822 0
force O  -0.020125232421121  -0.020489585223222   0.014914770718062 0
force O   0.016439812434415   0.016789506489749   0.016573385689856 0
force O   0.019015460705781  -0.019278327433447  -0.015332194003146 0
force O  -0.018910193488922   0.018161127801275  -0.015465335289417 0
force O  -0.019513756626173  -0.018848151792407   0.015283992557741 0
force O   0.019643259940985   0.021774714813571   0.016023166449007 0
force O   0.020247488043154  -0.018689948193801  -0.012594037932106 0
force O  -0.023420203494249   0.022423292381023  -0.014369949945308 0
force O  -0.018235947641434  -0.019162420761306   0.016517234638086 0
force O   0.018694329013493   0.017110942823744   0.016714843516851 0
force O   0.021605467472483  -0.021959976305072  -0.013170890516294 0
force O  -0.018251624149617   0.017927532595401   0.005305031960190 0
force O  -0.020697436985074  -0.021549186409583   0.014517585764536 0
force O   0.018515218628545   0.016992794457121   0.015683380598755 0
force O   0.019018344934444  -0.021874280512238  -0.017569837931818 0
force O  -0.018392758426713   0.017571860547894  -0.015852904589295 0
force O  -0.033681165276583  -0.031165234753159   0.002381407806350 0
force O   0.033603052291883   0.035554163950991   0.005140783630163 0
force O  -0.001116080846163   0.000109666447039  -0.041057493112039 0
force O  -0.005691580014399   0.007272200147842  -0.033191534762579 0
force O  -0.018763440753103  -0.018335868870255   0.017366999114893 0
force O   0.018300322615967   0.016993300991822   0.016534603871890 0
force O   0.021591075377788  -0.023264804620539  -0.011279665990997 0
force O  -0.018088639418744   0.021836059355709  -0.003694546425953 0
force O  -0.019959317670369  -0.020609492083302   0.014959030456773 0
force O   0.019795482834120   0.019841803560273   0.015041007615833 0
force O   0.022271483472063  -0.022040606090595  -0.014471148943220 0
force O  -0.018976577243592   0.018669902098495  -0.015368137796363 0
force O  -0.015252293222646  -0.015151636209539   0.017494480847261 0
force O   0.018750207837529   0.019906947154855   0.016115680395696 0
force O   0.021848202193088  -0.017228423168202  -0.004659908624724 0
force O  -0.021123659863597   0.021749138656287  -0.013588105125805 0
force O  -0.020370481344147  -0.020275872969252   0.016426479618871 0
force O   0.018937263135828   0.018549173448581   0.015551417797716 0
force O   0.020188486002197  -0.021795312386394  -0.012703120397632 0
force O  -0.020826683828762   0.019538496687549  -0.012685183508016 0
force S  -0.000097314561709  -0.000065376168419  -0.000070034846900 1
force Na  -0.000040379321805  -0.000034858325676   0.000214452057156 1
force Na   0.000088065239283   0.000037784791249   0.000103431387844 1

# Energy components:
   Eewald =    -3091.2706963793129944
       EH =    -1639.6180235346778318
     Eloc =     2733.8563931182743545
      Enl =       36.5755305551180072
      Exc =     -309.4092149905134193
 Exc_core =       27.6791600437867586
       KE =      506.2806796136240450
-------------------------------------
     Etot =    -1735.9061715737009308
       TS =        0.0984585810640104
-------------------------------------
        F =    -1736.0046301547649819

IonicMinimize: Iter:  40  F: -1736.004630154764982  |grad|_K:  9.853e-05  alpha:  2.076e+01  linmin: -2.224e-05  t[s]: 2608763.13
IonicMinimize: Converged (|grad|_K<1.000000e-04).

#--- Lowdin population analysis ---
# oxidation-state Ti +1.586 +1.585 +1.586 +1.560 +1.587 +1.570 +1.587 +1.593 +1.588 +1.568 +1.585 +1.553 +1.586 +1.586 +1.578 +1.578 +1.597 +1.562
# oxidation-state O -0.743 -0.745 -0.743 -0.744 -0.739 -0.743 -0.754 -0.731 -0.743 -0.743 -0.744 -0.815 -0.743 -0.740 -0.725 -0.745 -0.775 -0.772 -0.789 -0.698 -0.745 -0.741 -0.749 -0.814 -0.742 -0.742 -0.739 -0.745 -0.741 -0.743 -0.817 -0.741 -0.748 -0.741 -0.750 -0.753
# oxidation-state S -0.892
# oxidation-state Na +0.717 +0.706


Dumping 'Na2S@TiO2.fillings' ... done
Dumping 'Na2S@TiO2.wfns' ... done
Dumping 'Na2S@TiO2.ionpos' ... done
Dumping 'Na2S@TiO2.eigenvals' ... done
End date and time: Fri May 17 15:16:47 2024  (Duration: 30-4:41:02.23)
Done!
