
*************** JDFTx 1.7.0  ***************

Start date and time: Sat Oct  5 05:30:19 2024
Executable jdftx_gpu with command-line: -i /home/akim2/JDFTx/Na2S2@NiS2_S-glyme/Na2S2@NiS2_S-glyme.in -o /home/akim2/JDFTx/Na2S2@NiS2_S-glyme/Na2S2@NiS2_S-glyme.out
Running on hosts (process indices):  exp-1-59 (0)
Divided in process groups (process indices):  0 (0)
gpuInit: Found compatible cuda device 0 'Tesla V100-SXM2-32GB'
gpuInit: Selected device 0
Resource initialization completed at t[s]:      0.70
Run totals: 1 processes, 1 threads, 1 GPUs


Input parsed successfully to the following command list (including defaults):

basis kpoint-dependent
coords-type Cartesian
core-overlap-check vector
coulomb-interaction Slab 001
coulomb-truncation-embed 0 0 7
davidson-band-ratio 1.1
dump End State
dump-name Na2S2@NiS2_S-glyme.$VAR
elec-cutoff 20 100
elec-eigen-algo Davidson
elec-ex-corr gga-PBE
elec-smearing Fermi 0.01
electronic-minimize  \
	dirUpdateScheme      FletcherReeves \
	linminMethod         DirUpdateRecommended \
	nIterations          100 \
	history              15 \
	knormThreshold       0 \
	energyDiffThreshold  1e-08 \
	nEnergyDiff          2 \
	alphaTstart          1 \
	alphaTmin            1e-10 \
	updateTestStepSize   yes \
	alphaTreduceFactor   0.1 \
	alphaTincreaseFactor 3 \
	nAlphaAdjustMax      3 \
	wolfeEnergy          0.0001 \
	wolfeGradient        0.9 \
	fdTest               no
exchange-regularization WignerSeitzTruncated
fluid LinearPCM 298.000000 1.013250
fluid-ex-corr lda-TF lda-PZ
fluid-gummel-loop 10 1.000000e-05
fluid-minimize  \
	dirUpdateScheme      PolakRibiere \
	linminMethod         DirUpdateRecommended \
	nIterations          400 \
	history              15 \
	knormThreshold       1e-11 \
	energyDiffThreshold  0 \
	nEnergyDiff          2 \
	alphaTstart          1 \
	alphaTmin            1e-10 \
	updateTestStepSize   yes \
	alphaTreduceFactor   0.1 \
	alphaTincreaseFactor 3 \
	nAlphaAdjustMax      6 \
	wolfeEnergy          0.0001 \
	wolfeGradient        0.9 \
	fdTest               no
fluid-solvent Glyme 9.62137 ScalarEOS \
	epsBulk 7.2 \
	pMol 0 \
	epsInf 1.9 \
	Pvap 0 \
	sigmaBulk 0 \
	Rvdw 0 \
	Res 0 \
	tauNuc 343133
forces-output-coords Positions
ion Ni  32.181130469222218  -0.000028463333331   0.611327655000000 0
ion Ni   5.363545148055554  -0.000028463333331   5.974853827499991 0
ion Ni  32.181130469222218  -5.363543250499998   5.974853827499991 0
ion Ni   5.363545148055554  -5.363543250499998   0.611327655000000 0
ion Ni  32.181130469222218 -10.727058037666666   0.611327655000000 0
ion Ni  32.181130469222218 -21.454087611999999   0.611327655000000 0
ion Ni   5.363545148055554 -21.454087611999999   5.974853827499991 0
ion Ni   5.363545148055554 -10.727058037666666   5.974853827499991 0
ion Ni  32.181130469222218 -16.090572824833334   5.974853827499991 0
ion Ni  32.181130469222218 -26.817602399166642   5.974853827499991 0
ion Ni   5.363545148055554 -26.817602399166642   0.611327655000000 0
ion Ni   5.363545148055554 -16.090572824833334   0.611327655000000 0
ion Ni  10.727071320555540  -0.000028463333331   0.611327655000000 0
ion Ni  21.454100894888885  -0.000028463333331   0.611327655000000 0
ion Ni  21.454100894888885  -5.363543250499998   5.974853827499991 0
ion Ni  10.727071320555540  -5.363543250499998   5.974853827499991 0
ion Ni  16.090574722388887  -5.363543250499998   0.611327655000000 0
ion Ni  26.817604296722198  -5.363543250499998   0.611327655000000 0
ion Ni  26.817604296722198  -0.000028463333331   5.974853827499991 0
ion Ni  16.090574722388887  -0.000028463333331   5.974853827499991 0
ion Ni  10.727071320555540 -10.727058037666666   0.611327655000000 0
ion Ni  21.454100894888885 -21.454087611999999   0.611327655000000 0
ion Ni  26.817604296722198 -21.454087611999999   5.974853827499991 0
ion Ni  16.090574722388887 -10.727058037666666   5.974853827499991 0
ion Ni  21.454100894888885 -16.090572824833334   5.974853827499991 0
ion Ni  10.727071320555540 -26.817602399166642   5.974853827499991 0
ion Ni  16.090574722388887 -26.817602399166642   0.611327655000000 0
ion Ni  26.817604296722198 -16.090572824833334   0.611327655000000 0
ion Ni  10.727071320555540 -21.454087611999999   0.611327655000000 0
ion Ni  21.454100894888885 -10.727058037666666   0.611327655000000 0
ion Ni  26.817604296722198 -10.727058037666666   5.974853827499991 0
ion Ni  16.090574722388887 -21.454087611999999   5.974853827499991 0
ion Ni  21.454100894888885 -26.817602399166642   5.974853827499991 0
ion Ni  10.727071320555540 -16.090572824833334   5.974853827499991 0
ion Ni  16.090574722388887 -16.090572824833334   0.611327655000000 0
ion Ni  26.817604296722198 -26.817602399166642   0.611327655000000 0
ion S   4.232269668888879  -4.232271970733331   7.106125994099994 0
ion S  27.948891161222196 -27.948885064266644   4.843581660899996 0
ion S   1.131317225388885 -27.948885064266644   1.742599821599998 0
ion S   9.595784456055540  -4.232271970733331  10.207107833399991 0
ion S  27.948891161222196  -9.595786757899997  10.207107833399991 0
ion S   4.232269668888879  -1.131311128433331   1.742599821599998 0
ion S   9.595784456055540  -1.131311128433331   4.843581660899996 0
ion S   1.131317225388885  -9.595786757899997   7.106125994099994 0
ion S   4.232269668888879 -14.959301545066653   7.106125994099994 0
ion S  27.948891161222196 -17.221855489933308   4.843581660899996 0
ion S   1.131317225388885 -17.221855489933308   1.742599821599998 0
ion S   9.595784456055540 -14.959301545066653  10.207107833399991 0
ion S  27.948891161222196 -20.322816332233330  10.207107833399991 0
ion S   4.232269668888879 -22.585370277100001   1.742599821599998 0
ion S   9.595784456055540 -22.585370277100001   4.843581660899996 0
ion S   1.131317225388885 -20.322816332233330   7.106125994099994 0
ion S  14.959299243222208  -4.232271970733330   7.106125994099994 0
ion S  17.221861586888888 -27.948885064266644   4.843581660899996 0
ion S  17.221861586888888  -9.595786757899997  10.207107833399991 0
ion S  14.959299243222208  -1.131311128433331   1.742599821599998 0
ion S  20.322814030388887  -1.131311128433331   4.843581660899996 0
ion S  22.585376374055553  -9.595786757899997   7.106125994099994 0
ion S  22.585376374055553 -27.948885064266644   1.742599821599998 0
ion S  20.322814030388887  -4.232271970733330  10.207107833399991 0
ion S   4.232269668888879 -25.686331119399977   7.106125994099994 0
ion S  27.948891161222196  -6.494825915599992   4.843581660899996 0
ion S   1.131317225388885  -6.494825915599992   1.742599821599998 0
ion S   9.595784456055540 -25.686331119399977  10.207107833399991 0
ion S  27.948891161222196 -31.049845906566667  10.207107833399991 0
ion S   4.232269668888879 -11.858340702766654   1.742599821599998 0
ion S   9.595784456055540 -11.858340702766654   4.843581660899996 0
ion S   1.131317225388885 -31.049845906566667   7.106125994099994 0
ion S  25.686328817555530  -4.232271970733330   7.106125994099994 0
ion S   6.494832012555547 -27.948885064266644   4.843581660899996 0
ion S   6.494832012555547  -9.595786757899997  10.207107833399991 0
ion S  25.686328817555530  -1.131311128433331   1.742599821599998 0
ion S  31.049843604722220  -1.131311128433331   4.843581660899996 0
ion S  11.858346799722209  -9.595786757899997   7.106125994099994 0
ion S  11.858346799722209 -27.948885064266644   1.742599821599998 0
ion S  31.049843604722220  -4.232271970733330  10.207107833399991 0
ion S  14.959299243222208 -14.959301545066653   7.106125994099994 0
ion S  17.221861586888888 -17.221855489933308   4.843581660899996 0
ion S  22.585376374055553 -17.221855489933308   1.742599821599998 0
ion S  20.322814030388887 -14.959301545066653  10.207107833399991 0
ion S  17.221861586888888 -20.322816332233330  10.207107833399991 0
ion S  14.959299243222208 -22.585370277100001   1.742599821599998 0
ion S  20.322814030388887 -22.585370277100001   4.843581660899996 0
ion S  22.585376374055553 -20.322816332233330   7.106125994099994 0
ion S  14.959299243222208 -25.686331119399977   7.106125994099994 0
ion S  17.221861586888888  -6.494825915599992   4.843581660899996 0
ion S  22.585376374055553  -6.494825915599992   1.742599821599998 0
ion S  20.322814030388887 -25.686331119399977  10.207107833399991 0
ion S  17.221861586888888 -31.049845906566667  10.207107833399991 0
ion S  14.959299243222208 -11.858340702766654   1.742599821599998 0
ion S  20.322814030388887 -11.858340702766654   4.843581660899996 0
ion S  22.585376374055553 -31.049845906566667   7.106125994099994 0
ion S  25.686328817555530 -14.959301545066653   7.106125994099994 0
ion S   6.494832012555547 -17.221855489933308   4.843581660899996 0
ion S  11.858346799722209 -17.221855489933308   1.742599821599998 0
ion S  31.049843604722220 -14.959301545066653  10.207107833399991 0
ion S   6.494832012555547 -20.322816332233330  10.207107833399991 0
ion S  25.686328817555530 -22.585370277100001   1.742599821599998 0
ion S  31.049843604722220 -22.585370277100001   4.843581660899996 0
ion S  11.858346799722209 -20.322816332233330   7.106125994099994 0
ion S  25.686328817555530 -25.686331119399977   7.106125994099994 0
ion S   6.494832012555547  -6.494825915599992   4.843581660899996 0
ion S  11.858346799722209  -6.494825915599992   1.742599821599998 0
ion S  31.049843604722220 -25.686331119399977  10.207107833399991 0
ion S   6.494832012555547 -31.049845906566667  10.207107833399991 0
ion S  25.686328817555530 -11.858340702766654   1.742599821599998 0
ion S  31.049843604722220 -11.858340702766654   4.843581660899996 0
ion S  11.858346799722209 -31.049845906566667   7.106125994099994 0
ion S  22.073101273691503 -16.801313493397917  12.903415698242060 1
ion S  14.158399616325404 -19.433561382763294  11.982669504594526 1
ion Na   4.420528436048222 -26.305191926387131  12.270216360786934 1
ion Na  26.595090820234368 -14.175433835040568  12.615749748593815 1
ion-species GBRV/$ID_pbe.uspp
ion-width Ecut
ionic-minimize  \
	dirUpdateScheme      FletcherReeves \
	linminMethod         DirUpdateRecommended \
	nIterations          200 \
	history              15 \
	knormThreshold       0.0001 \
	energyDiffThreshold  1e-06 \
	nEnergyDiff          2 \
	alphaTstart          1 \
	alphaTmin            1e-10 \
	updateTestStepSize   yes \
	alphaTreduceFactor   0.1 \
	alphaTincreaseFactor 3 \
	nAlphaAdjustMax      3 \
	wolfeEnergy          0.0001 \
	wolfeGradient        0.9 \
	fdTest               no
kpoint   0.000000000000   0.000000000000   0.000000000000  1.00000000000000
kpoint-folding 1 1 1 
latt-move-scale 1 1 1
latt-scale 1 1 1 
lattice Triclinic 32.1811 32.1811 44 90 90 90
lattice-minimize  \
	dirUpdateScheme      L-BFGS \
	linminMethod         DirUpdateRecommended \
	nIterations          0 \
	history              15 \
	knormThreshold       0 \
	energyDiffThreshold  1e-06 \
	nEnergyDiff          2 \
	alphaTstart          1 \
	alphaTmin            1e-10 \
	updateTestStepSize   yes \
	alphaTreduceFactor   0.1 \
	alphaTincreaseFactor 3 \
	nAlphaAdjustMax      3 \
	wolfeEnergy          0.0001 \
	wolfeGradient        0.9 \
	fdTest               no
lcao-params -1 1e-06 0.01
pcm-variant GLSSA13
spintype no-spin
subspace-rotation-factor 1 yes
symmetries automatic
symmetry-threshold 0.0001



---------- Setting up symmetries ----------

Found 16 point-group symmetries of the bravais lattice
Found 1 space-group symmetries with basis
Applied RMS atom displacement 0 bohrs to make symmetries exact.

---------- Initializing the Grid ----------
R = 
[      32.1811            0            0  ]
[            0      32.1811            0  ]
[            0            0           44  ]
unit cell volume = 45567.4
G =
[   0.195245          0          0  ]
[          0   0.195245          0  ]
[          0          0     0.1428  ]
Minimum fftbox size, Smin = [  148  148  200  ]
Chosen fftbox size, S = [  150  150  200  ]

---------- Initializing tighter grid for wavefunction operations ----------
R = 
[      32.1811            0            0  ]
[            0      32.1811            0  ]
[            0            0           44  ]
unit cell volume = 45567.4
G =
[   0.195245          0          0  ]
[          0   0.195245          0  ]
[          0          0     0.1428  ]
Minimum fftbox size, Smin = [  132  132  180  ]
Chosen fftbox size, S = [  140  140  180  ]

---------- Exchange Correlation functional ----------
Initalized PBE GGA exchange.
Initalized PBE GGA correlation.

---------- Setting up pseudopotentials ----------
Width of ionic core gaussian charges (only for fluid interactions / plotting) set to 0.397384

Reading pseudopotential file '/home/akim2/jdftx_install/build/pseudopotentials/GBRV/ni_pbe.uspp':
  Title: Ni.  Created by USPP 7.3.6 on 1-4-15
  Reference state energy: -170.398381.  18 valence electrons in orbitals:
    |300>  occupation: 2  eigenvalue: -4.804705
    |310>  occupation: 6  eigenvalue: -3.347751
    |320>  occupation: 8  eigenvalue: -1.042415
    |400>  occupation: 0  eigenvalue: -0.795539
    |410>  occupation: 0  eigenvalue: -0.551375
  lMax: 2  lLocal: 3  QijEcut: 6.5
  6 projectors sampled on a log grid with 611 points:
    l: 0  eig: -4.804708  rCut: 1.44
    l: 0  eig: -0.795541  rCut: 1.44
    l: 1  eig: -3.347753  rCut: 1.55
    l: 1  eig: 0.500000  rCut: 1.55
    l: 2  eig: -1.042418  rCut: 1.5
    l: 2  eig: -0.450000  rCut: 1.5
  Partial core density with radius 0.65
  Transforming core density to a uniform radial grid of dG=0.02 with 1263 points.
  Transforming local potential to a uniform radial grid of dG=0.02 with 1263 points.
  Transforming nonlocal projectors to a uniform radial grid of dG=0.02 with 432 points.
  Transforming density augmentations to a uniform radial grid of dG=0.02 with 1263 points.
  Transforming atomic orbitals to a uniform radial grid of dG=0.02 with 432 points.
  Core radius for overlap checks: 1.55 bohrs.

Reading pseudopotential file '/home/akim2/jdftx_install/build/pseudopotentials/GBRV/s_pbe.uspp':
  Title: S.  Created by USPP 7.3.6 on 1-4-15
  Reference state energy: -11.898476.  6 valence electrons in orbitals:
    |300>  occupation: 2  eigenvalue: -0.634167
    |310>  occupation: 4  eigenvalue: -0.257568
  lMax: 2  lLocal: 3  QijEcut: 6
  6 projectors sampled on a log grid with 635 points:
    l: 0  eig: -0.634161  rCut: 1.5
    l: 0  eig: 1.500000  rCut: 1.5
    l: 1  eig: -0.257567  rCut: 1.5
    l: 1  eig: 1.500000  rCut: 1.5
    l: 2  eig: -1.000000  rCut: 1.5
    l: 2  eig: 1.500000  rCut: 1.5
  Partial core density with radius 1.15
  Transforming core density to a uniform radial grid of dG=0.02 with 1263 points.
  Transforming local potential to a uniform radial grid of dG=0.02 with 1263 points.
  Transforming nonlocal projectors to a uniform radial grid of dG=0.02 with 432 points.
  Transforming density augmentations to a uniform radial grid of dG=0.02 with 1263 points.
  Transforming atomic orbitals to a uniform radial grid of dG=0.02 with 432 points.
  Core radius for overlap checks: 1.50 bohrs.

Reading pseudopotential file '/home/akim2/jdftx_install/build/pseudopotentials/GBRV/na_pbe.uspp':
  Title: Na.  Created by USPP 7.3.6 on 23-9-15
  Reference state energy: -47.625620.  9 valence electrons in orbitals:
    |200>  occupation: 2  eigenvalue: -2.085638
    |210>  occupation: 6  eigenvalue: -1.053708
    |300>  occupation: 1  eigenvalue: -0.100838
  lMax: 2  lLocal: 0  QijEcut: 6
  5 projectors sampled on a log grid with 657 points:
    l: 0  eig: -2.085640  rCut: 1.37
    l: 0  eig: -0.100839  rCut: 1.37
    l: 1  eig: -1.053708  rCut: 1.47
    l: 1  eig: 0.500000  rCut: 1.47
    l: 2  eig: 0.750000  rCut: 2
  Transforming local potential to a uniform radial grid of dG=0.02 with 1263 points.
  Transforming nonlocal projectors to a uniform radial grid of dG=0.02 with 432 points.
  Transforming density augmentations to a uniform radial grid of dG=0.02 with 1263 points.
  Transforming atomic orbitals to a uniform radial grid of dG=0.02 with 432 points.
  Core radius for overlap checks: 2.00 bohrs.

Initialized 3 species with 112 total atoms.

Folded 1 k-points by 1x1x1 to 1 k-points.

---------- Setting up k-points, bands, fillings ----------
No reducable k-points. 
Computing the number of bands and number of electrons
Calculating initial fillings.
nElectrons: 1110.000000   nBands: 774   nStates: 1

----- Setting up reduced wavefunction bases (one per k-point) -----
average nbasis = 194745.000 , ideal nbasis = 194667.357

---------- Setting up coulomb interaction ----------
Fluid mode embedding: using embedded box, but periodic Coulomb kernel.
(Fluid response is responsible for (approximate) separation between periodic images.)
Setting up double-sized grid for truncated Coulomb potentials:
R = 
[      32.1811            0            0  ]
[            0      32.1811            0  ]
[            0            0           88  ]
unit cell volume = 91134.8
G =
[   0.195245          0          0  ]
[          0   0.195245          0  ]
[          0          0  0.0713998  ]
Chosen fftbox size, S = [  150  150  400  ]
Integer grid location selected as the embedding center:
   Grid: [  0  0  32  ]
   Lattice: [  0  0  0.159091  ]
   Cartesian: [  0  0  7  ]
Constructing Wigner-Seitz cell: 6 faces (6 quadrilaterals, 0 hexagons)
Range-separation parameter for embedded mesh potentials due to point charges: 0.591727 bohrs.

---------- Setting up ewald sum ----------
Optimum gaussian width for ewald sums = 8.177146 bohr.
Real space sum over 405 unit cells with max indices [  4  4  2  ]
Reciprocal space sum over 8325 terms with max indices [  7  7  18  ]

---------- Allocating electronic variables ----------
Initializing wave functions:  linear combination of atomic orbitals
Ni pseudo-atom occupations:   s ( 2 0 )  p ( 6 0 )  d ( 10 )
S pseudo-atom occupations:   s ( 2 )  p ( 4 )
Na pseudo-atom occupations:   s ( 2 1 )  p ( 6 )
	FillingsUpdate:  mu: -0.985673327  nElectrons: 1110.000000
LCAOMinimize: Iter:   0  F: -6299.1121447369268935  |grad|_K:  3.445e-02  alpha:  1.000e+00
	FillingsUpdate:  mu: +3.219354902  nElectrons: 1110.000000
LCAOMinimize: Iter:   1  F: -6552.9075170620208155  |grad|_K:  1.215e-01  alpha:  2.116e-01  linmin:  9.176e-02  cgtest: -5.986e-01  t[s]:     22.68
LCAOMinimize: 	Bad step direction: g.d > 0.
LCAOMinimize: 	Undoing step.
LCAOMinimize: 	Step failed: resetting search direction.
	FillingsUpdate:  mu: +3.219354902  nElectrons: 1110.000000
LCAOMinimize: Iter:   2  F: -6552.9075170620208155  |grad|_K:  1.215e-01  alpha:  0.000e+00
	FillingsUpdate:  mu: +1.554512845  nElectrons: 1110.000000
LCAOMinimize: Iter:   3  F: -6824.0548186390406045  |grad|_K:  1.455e-01  alpha:  6.632e-02  linmin:  2.142e-01  cgtest: -4.279e-01  t[s]:     34.17
LCAOMinimize: 	Bad step direction: g.d > 0.
LCAOMinimize: 	Undoing step.
LCAOMinimize: 	Step failed: resetting search direction.
	FillingsUpdate:  mu: +1.554512845  nElectrons: 1110.000000
LCAOMinimize: Iter:   4  F: -6824.0548186390406045  |grad|_K:  1.455e-01  alpha:  0.000e+00
	FillingsUpdate:  mu: +0.869562821  nElectrons: 1110.000000
LCAOMinimize: Iter:   5  F: -6949.6867035936020329  |grad|_K:  6.741e-02  alpha:  3.249e-02  linmin:  1.087e-01  cgtest: -9.675e-01  t[s]:     45.82
LCAOMinimize: 	Step increased F by 3.769554e-01, reducing alpha to 5.001975e-03.
	FillingsUpdate:  mu: +0.797797202  nElectrons: 1110.000000
LCAOMinimize: Iter:   6  F: -6953.5196873813320053  |grad|_K:  6.407e-02  alpha:  5.002e-03  linmin: -3.769e-02  cgtest:  1.006e+00  t[s]:     60.24
LCAOMinimize: Encountered beta<0, resetting CG.
LCAOMinimize: 	Wrong curvature in test step, increasing alphaT to 1.500592e-02.
	FillingsUpdate:  mu: +0.668514714  nElectrons: 1110.000000
LCAOMinimize: Iter:   7  F: -6966.0928093519132744  |grad|_K:  6.003e-02  alpha: -1.273e-01  linmin: -2.597e-01  cgtest:  9.072e-01  t[s]:     66.73
LCAOMinimize: 	Step increased F by 1.000540e+03, reducing alpha to 2.755911e-02.
	FillingsUpdate:  mu: +0.256507710  nElectrons: 1110.000000
LCAOMinimize: Iter:   8  F: -6997.6245117548951384  |grad|_K:  6.109e-02  alpha:  2.756e-02  linmin:  1.577e-01  cgtest: -3.423e-01  t[s]:     78.60
	FillingsUpdate:  mu: +0.257605987  nElectrons: 1110.000000
LCAOMinimize: Iter:   9  F: -6997.6310697440758304  |grad|_K:  6.118e-02  alpha:  1.338e-04  linmin: -2.111e-03  cgtest:  9.997e-01  t[s]:     85.42
LCAOMinimize: 	Predicted alpha/alphaT>3.000000, increasing alphaT to 4.014372e-04.
LCAOMinimize: 	Predicted alpha/alphaT>3.000000, increasing alphaT to 1.204311e-03.
LCAOMinimize: 	Predicted alpha/alphaT>3.000000, increasing alphaT to 3.612934e-03.
	FillingsUpdate:  mu: +0.156438696  nElectrons: 1110.000000
LCAOMinimize: Iter:  10  F: -7007.8475966119694931  |grad|_K:  2.061e-02  alpha:  7.787e-03  linmin: -3.864e-01  cgtest:  9.329e-01  t[s]:     95.87
LCAOMinimize: Encountered beta<0, resetting CG.
	FillingsUpdate:  mu: +0.117131498  nElectrons: 1110.000000
LCAOMinimize: Iter:  11  F: -7010.8682942393461417  |grad|_K:  1.146e-02  alpha:  2.261e-02  linmin: -5.199e-02  cgtest: -1.396e-01  t[s]:    102.71
	FillingsUpdate:  mu: +0.054641691  nElectrons: 1110.000000
LCAOMinimize: Iter:  12  F: -7011.9671063687865171  |grad|_K:  1.564e-02  alpha:  3.077e-02  linmin:  9.381e-02  cgtest:  3.108e-01  t[s]:    109.55
	FillingsUpdate:  mu: +0.044469023  nElectrons: 1110.000000
LCAOMinimize: Iter:  13  F: -7012.5328802241538142  |grad|_K:  1.599e-02  alpha:  1.190e-02  linmin: -9.560e-03  cgtest:  8.486e-01  t[s]:    116.38
	FillingsUpdate:  mu: +0.003108645  nElectrons: 1110.000000
LCAOMinimize: Iter:  14  F: -7013.6010438130633702  |grad|_K:  5.869e-03  alpha:  1.359e-02  linmin: -8.468e-02  cgtest:  1.337e-01  t[s]:    123.23
	FillingsUpdate:  mu: -0.006409691  nElectrons: 1110.000000
LCAOMinimize: Iter:  15  F: -7013.8772315419346342  |grad|_K:  3.602e-03  alpha:  2.573e-02  linmin:  1.097e-02  cgtest: -1.009e-01  t[s]:    129.96
	FillingsUpdate:  mu: -0.011828754  nElectrons: 1110.000000
LCAOMinimize: Iter:  16  F: -7014.0443659848224343  |grad|_K:  4.752e-03  alpha:  4.706e-02  linmin:  2.090e-02  cgtest:  3.925e-02  t[s]:    136.71
	FillingsUpdate:  mu: -0.030607575  nElectrons: 1110.000000
LCAOMinimize: Iter:  17  F: -7014.2895001490614959  |grad|_K:  2.707e-03  alpha:  4.169e-02  linmin:  1.870e-03  cgtest:  3.457e-01  t[s]:    143.44
	FillingsUpdate:  mu: -0.045014991  nElectrons: 1110.000000
LCAOMinimize: Iter:  18  F: -7014.3356996609427370  |grad|_K:  1.779e-03  alpha:  2.179e-02  linmin:  7.525e-03  cgtest: -3.921e-02  t[s]:    150.16
	FillingsUpdate:  mu: -0.059847068  nElectrons: 1110.000000
LCAOMinimize: Iter:  19  F: -7014.3695064809535324  |grad|_K:  1.625e-03  alpha:  3.616e-02  linmin:  4.318e-04  cgtest:  4.329e-02  t[s]:    156.87
	FillingsUpdate:  mu: -0.061823966  nElectrons: 1110.000000
LCAOMinimize: Iter:  20  F: -7014.3960974203555452  |grad|_K:  1.773e-03  alpha:  3.359e-02  linmin: -6.178e-04  cgtest: -1.845e-02  t[s]:    163.61
	FillingsUpdate:  mu: -0.060826035  nElectrons: 1110.000000
LCAOMinimize: Iter:  21  F: -7014.4453446245815940  |grad|_K:  1.382e-03  alpha:  5.254e-02  linmin:  4.630e-03  cgtest:  5.701e-02  t[s]:    170.34
	FillingsUpdate:  mu: -0.065249685  nElectrons: 1110.000000
LCAOMinimize: Iter:  22  F: -7014.4568121594411423  |grad|_K:  7.024e-04  alpha:  2.040e-02  linmin: -1.456e-03  cgtest:  1.008e-01  t[s]:    177.10
	FillingsUpdate:  mu: -0.066100008  nElectrons: 1110.000000
LCAOMinimize: Iter:  23  F: -7014.4622959352327598  |grad|_K:  5.005e-04  alpha:  3.695e-02  linmin:  1.600e-03  cgtest: -2.056e-02  t[s]:    183.86
	FillingsUpdate:  mu: -0.069318203  nElectrons: 1110.000000
LCAOMinimize: Iter:  24  F: -7014.4645061819228431  |grad|_K:  3.978e-04  alpha:  2.949e-02  linmin:  2.206e-04  cgtest:  1.331e-02  t[s]:    192.79
	FillingsUpdate:  mu: -0.069986531  nElectrons: 1110.000000
LCAOMinimize: Iter:  25  F: -7014.4657283316664689  |grad|_K:  3.057e-04  alpha:  2.573e-02  linmin:  2.358e-04  cgtest: -5.371e-04  t[s]:    199.78
	FillingsUpdate:  mu: -0.069973611  nElectrons: 1110.000000
LCAOMinimize: Iter:  26  F: -7014.4673760944624519  |grad|_K:  3.611e-04  alpha:  5.895e-02  linmin:  6.239e-04  cgtest: -4.270e-04  t[s]:    206.78
	FillingsUpdate:  mu: -0.072016939  nElectrons: 1110.000000
LCAOMinimize: Iter:  27  F: -7014.4684005186372815  |grad|_K:  2.472e-04  alpha:  2.608e-02  linmin: -7.497e-04  cgtest:  2.667e-02  t[s]:    213.88
	FillingsUpdate:  mu: -0.071979990  nElectrons: 1110.000000
LCAOMinimize: Iter:  28  F: -7014.4690524902171092  |grad|_K:  1.847e-04  alpha:  3.535e-02  linmin:  1.903e-04  cgtest: -1.630e-02  t[s]:    220.90
	FillingsUpdate:  mu: -0.072669593  nElectrons: 1110.000000
LCAOMinimize: Iter:  29  F: -7014.4696262381003180  |grad|_K:  2.147e-04  alpha:  5.610e-02  linmin:  3.998e-05  cgtest:  6.549e-03  t[s]:    227.95
	FillingsUpdate:  mu: -0.072177636  nElectrons: 1110.000000
LCAOMinimize: Iter:  30  F: -7014.4701544348563402  |grad|_K:  1.664e-04  alpha:  3.819e-02  linmin: -3.486e-06  cgtest:  3.517e-04  t[s]:    235.01
LCAOMinimize: None of the convergence criteria satisfied after 30 iterations.
----- createFluidSolver() ----- (Fluid-side solver setup)
   Initializing fluid molecule 'Glyme'
     Net charge: 0   dipole magnitude: 0
     Initializing spherical shell mfKernel with radius 0 Bohr
     deltaS corrections:

Correction to mu due to finite nuclear width = -0.0120848
   Cavity determined by nc: 8.36e-05 and sigma: 0.6
   Effective cavity tension: -8.03e-06 Eh/bohr^2 to account for cavitation and dispersion.


---- Citations for features of the code used in this run ----

   Software package:
      R. Sundararaman, K. Letchworth-Weaver, K.A. Schwarz, D. Gunceler, Y. Ozhabes and T.A. Arias, 'JDFTx: software for joint density-functional theory', SoftwareX 6, 278 (2017)

   gga-PBE exchange-correlation functional:
      J.P. Perdew, K. Burke and M. Ernzerhof, Phys. Rev. Lett. 77, 3865 (1996)

   Pseudopotentials:
      KF Garrity, JW Bennett, KM Rabe and D Vanderbilt, Comput. Mater. Sci. 81, 446 (2014)

   Truncated Coulomb potentials:
      R. Sundararaman and T.A. Arias, Phys. Rev. B 87, 165122 (2013)

   Linear/nonlinear dielectric/ionic fluid model with effective cavity tension:
      D. Gunceler, K. Letchworth-Weaver, R. Sundararaman, K.A. Schwarz and T.A. Arias, Modelling Simul. Mater. Sci. Eng. 21, 074005 (2013)

   Total energy minimization with Auxiliary Hamiltonian:
      C. Freysoldt, S. Boeck, and J. Neugebauer, Phys. Rev. B 79, 241103(R) (2009)

This list may not be complete. Please suggest additional citations or
report any other bugs at https://github.com/shankar1729/jdftx/issues

Initialization completed successfully at t[s]:    236.83

Fluid solver invoked on fresh (random / LCAO) wavefunctions
Running a vacuum solve first:

-------- Initial electronic minimization -----------
	FillingsUpdate:  mu: -0.072177636  nElectrons: 1110.000000
ElecMinimize: Iter:   0  F: -7014.470154434813594  |grad|_K:  2.025e-04  alpha:  1.000e+00
	FillingsUpdate:  mu: -0.112145739  nElectrons: 1110.000000
	SubspaceRotationAdjust: set factor to 0.668
ElecMinimize: Iter:   1  F: -7016.340252106685512  |grad|_K:  3.052e-04  alpha:  2.942e-01  linmin: -9.888e-06  t[s]:    256.27
ElecMinimize: 	Step increased F by 2.345041e-02, reducing alpha to 5.490455e-03.
	FillingsUpdate:  mu: -0.117211172  nElectrons: 1110.000000
	SubspaceRotationAdjust: set factor to 0.649
ElecMinimize: Iter:   2  F: -7016.478582890033067  |grad|_K:  2.163e-04  alpha:  5.490e-03  linmin: -3.261e-04  t[s]:    275.88
ElecMinimize: 	Predicted alpha/alphaT>3.000000, increasing alphaT to 1.647136e-02.
	FillingsUpdate:  mu: -0.068237637  nElectrons: 1110.000000
	SubspaceRotationAdjust: set factor to 0.421
ElecMinimize: Iter:   3  F: -7016.816307794883869  |grad|_K:  2.670e-04  alpha:  2.619e-02  linmin: -4.608e-05  t[s]:    290.98
	FillingsUpdate:  mu: +0.008436184  nElectrons: 1110.000000
	SubspaceRotationAdjust: set factor to 0.231
ElecMinimize: Iter:   4  F: -7017.297088833208363  |grad|_K:  3.463e-04  alpha:  3.904e-02  linmin: -3.811e-05  t[s]:    302.95
	FillingsUpdate:  mu: +0.050096910  nElectrons: 1110.000000
	SubspaceRotationAdjust: set factor to 0.176
ElecMinimize: Iter:   5  F: -7017.889675584689940  |grad|_K:  2.308e-04  alpha:  3.065e-02  linmin: -1.455e-07  t[s]:    314.88
	FillingsUpdate:  mu: +0.016692166  nElectrons: 1110.000000
	SubspaceRotationAdjust: set factor to 0.239
ElecMinimize: Iter:   6  F: -7018.200940200719742  |grad|_K:  1.760e-04  alpha:  3.878e-02  linmin:  2.794e-06  t[s]:    326.79
	FillingsUpdate:  mu: -0.002355598  nElectrons: 1110.000000
	SubspaceRotationAdjust: set factor to 0.184
ElecMinimize: Iter:   7  F: -7018.432734895213798  |grad|_K:  1.843e-04  alpha:  5.007e-02  linmin:  1.063e-06  t[s]:    338.68
	FillingsUpdate:  mu: -0.053207339  nElectrons: 1110.000000
	SubspaceRotationAdjust: set factor to 0.118
	SubspaceRotationAdjust: resetting CG because factor has changed by 0.118088
ElecMinimize: 	State modified externally: resetting search direction.
ElecMinimize: Iter:   8  F: -7018.670764631017846  |grad|_K:  1.358e-04  alpha:  4.651e-02
ElecMinimize: 	Predicted alpha/alphaT>3.000000, increasing alphaT to 1.395370e-01.
	FillingsUpdate:  mu: -0.052170299  nElectrons: 1110.000000
	SubspaceRotationAdjust: set factor to 0.0834
ElecMinimize: Iter:   9  F: -7019.186647880612327  |grad|_K:  7.955e-05  alpha:  1.846e-01  linmin: -2.967e-04  t[s]:    371.71
	FillingsUpdate:  mu: -0.097518945  nElectrons: 1110.000000
	SubspaceRotationAdjust: set factor to 0.0906
ElecMinimize: Iter:  10  F: -7019.487876340253933  |grad|_K:  6.817e-05  alpha:  3.139e-01  linmin:  1.304e-04  t[s]:    383.65
	FillingsUpdate:  mu: -0.103045130  nElectrons: 1110.000000
	SubspaceRotationAdjust: set factor to 0.0965
ElecMinimize: Iter:  11  F: -7019.703711636948356  |grad|_K:  2.826e-05  alpha:  3.107e-01  linmin:  6.588e-05  t[s]:    395.59
	FillingsUpdate:  mu: -0.107364305  nElectrons: 1110.000000
	SubspaceRotationAdjust: set factor to 0.0953
ElecMinimize: Iter:  12  F: -7019.769954186238465  |grad|_K:  3.338e-05  alpha:  5.527e-01  linmin:  7.653e-05  t[s]:    407.45
	FillingsUpdate:  mu: -0.106018784  nElectrons: 1110.000000
	SubspaceRotationAdjust: set factor to 0.108
ElecMinimize: Iter:  13  F: -7019.811730530710520  |grad|_K:  1.731e-05  alpha:  2.528e-01  linmin:  4.033e-05  t[s]:    419.39
	FillingsUpdate:  mu: -0.104892401  nElectrons: 1110.000000
	SubspaceRotationAdjust: set factor to 0.117
ElecMinimize: Iter:  14  F: -7019.831974714349599  |grad|_K:  1.701e-05  alpha:  4.500e-01  linmin:  1.015e-05  t[s]:    431.33
	FillingsUpdate:  mu: -0.107574583  nElectrons: 1110.000000
	SubspaceRotationAdjust: set factor to 0.131
ElecMinimize: Iter:  15  F: -7019.846213983905727  |grad|_K:  1.537e-05  alpha:  3.271e-01  linmin:  6.557e-06  t[s]:    443.32
	FillingsUpdate:  mu: -0.107643714  nElectrons: 1110.000000
	SubspaceRotationAdjust: set factor to 0.134
ElecMinimize: Iter:  16  F: -7019.863400436135635  |grad|_K:  1.657e-05  alpha:  4.824e-01  linmin: -4.719e-06  t[s]:    455.20
	FillingsUpdate:  mu: -0.107072576  nElectrons: 1110.000000
	SubspaceRotationAdjust: set factor to 0.123
ElecMinimize: Iter:  17  F: -7019.876925380281136  |grad|_K:  1.515e-05  alpha:  3.266e-01  linmin: -2.584e-06  t[s]:    467.05
	FillingsUpdate:  mu: -0.107997427  nElectrons: 1110.000000
	SubspaceRotationAdjust: set factor to 0.113
ElecMinimize: Iter:  18  F: -7019.886201554521904  |grad|_K:  1.361e-05  alpha:  2.672e-01  linmin: -2.237e-06  t[s]:    478.91
	FillingsUpdate:  mu: -0.109129727  nElectrons: 1110.000000
	SubspaceRotationAdjust: set factor to 0.11
ElecMinimize: Iter:  19  F: -7019.899914602809986  |grad|_K:  1.149e-05  alpha:  4.905e-01  linmin:  4.523e-06  t[s]:    490.91
	FillingsUpdate:  mu: -0.107338323  nElectrons: 1110.000000
	SubspaceRotationAdjust: set factor to 0.108
ElecMinimize: Iter:  20  F: -7019.905615318693890  |grad|_K:  8.844e-06  alpha:  2.887e-01  linmin: -1.141e-06  t[s]:    502.87
	FillingsUpdate:  mu: -0.108322811  nElectrons: 1110.000000
	SubspaceRotationAdjust: set factor to 0.103
ElecMinimize: Iter:  21  F: -7019.910169886193216  |grad|_K:  6.969e-06  alpha:  3.851e-01  linmin: -7.416e-07  t[s]:    514.85
	FillingsUpdate:  mu: -0.109117369  nElectrons: 1110.000000
	SubspaceRotationAdjust: set factor to 0.0888
ElecMinimize: Iter:  22  F: -7019.912591838824483  |grad|_K:  6.132e-06  alpha:  3.300e-01  linmin:  1.442e-06  t[s]:    526.84
	FillingsUpdate:  mu: -0.108050895  nElectrons: 1110.000000
	SubspaceRotationAdjust: set factor to 0.0914
ElecMinimize: Iter:  23  F: -7019.914136810225500  |grad|_K:  3.854e-06  alpha:  2.725e-01  linmin:  1.464e-06  t[s]:    538.85
	FillingsUpdate:  mu: -0.108093683  nElectrons: 1110.000000
	SubspaceRotationAdjust: set factor to 0.0944
ElecMinimize: Iter:  24  F: -7019.914983749632484  |grad|_K:  3.003e-06  alpha:  3.779e-01  linmin:  3.736e-06  t[s]:    550.87
	FillingsUpdate:  mu: -0.108145367  nElectrons: 1110.000000
	SubspaceRotationAdjust: set factor to 0.0987
ElecMinimize: Iter:  25  F: -7019.915470244095559  |grad|_K:  2.731e-06  alpha:  3.580e-01  linmin:  4.869e-06  t[s]:    562.86
	FillingsUpdate:  mu: -0.107837902  nElectrons: 1110.000000
	SubspaceRotationAdjust: set factor to 0.111
ElecMinimize: Iter:  26  F: -7019.915787274373542  |grad|_K:  1.705e-06  alpha:  2.823e-01  linmin:  7.463e-06  t[s]:    574.90
	FillingsUpdate:  mu: -0.107997376  nElectrons: 1110.000000
	SubspaceRotationAdjust: set factor to 0.129
ElecMinimize: Iter:  27  F: -7019.915991776489136  |grad|_K:  1.785e-06  alpha:  4.672e-01  linmin:  6.155e-06  t[s]:    587.01
	FillingsUpdate:  mu: -0.107860858  nElectrons: 1110.000000
	SubspaceRotationAdjust: set factor to 0.14
ElecMinimize: Iter:  28  F: -7019.916144385731968  |grad|_K:  1.554e-06  alpha:  3.185e-01  linmin:  4.876e-06  t[s]:    599.07
	FillingsUpdate:  mu: -0.107783136  nElectrons: 1110.000000
	SubspaceRotationAdjust: set factor to 0.148
ElecMinimize: Iter:  29  F: -7019.916270009961409  |grad|_K:  1.565e-06  alpha:  3.458e-01  linmin:  3.151e-06  t[s]:    611.15
	FillingsUpdate:  mu: -0.107815898  nElectrons: 1110.000000
	SubspaceRotationAdjust: set factor to 0.156
ElecMinimize: Iter:  30  F: -7019.916389423513465  |grad|_K:  1.395e-06  alpha:  3.241e-01  linmin:  2.075e-06  t[s]:    623.18
	FillingsUpdate:  mu: -0.107717189  nElectrons: 1110.000000
	SubspaceRotationAdjust: set factor to 0.162
ElecMinimize: Iter:  31  F: -7019.916496717848531  |grad|_K:  1.397e-06  alpha:  3.661e-01  linmin:  7.422e-07  t[s]:    635.27
	FillingsUpdate:  mu: -0.107722331  nElectrons: 1110.000000
	SubspaceRotationAdjust: set factor to 0.163
ElecMinimize: Iter:  32  F: -7019.916592020899770  |grad|_K:  1.191e-06  alpha:  3.238e-01  linmin: -8.660e-08  t[s]:    647.27
	FillingsUpdate:  mu: -0.107606312  nElectrons: 1110.000000
	SubspaceRotationAdjust: set factor to 0.145
ElecMinimize: Iter:  33  F: -7019.916656466313725  |grad|_K:  1.199e-06  alpha:  3.008e-01  linmin: -3.196e-07  t[s]:    659.29
	FillingsUpdate:  mu: -0.107748654  nElectrons: 1110.000000
	SubspaceRotationAdjust: set factor to 0.127
ElecMinimize: Iter:  34  F: -7019.916711646520525  |grad|_K:  9.334e-07  alpha:  2.541e-01  linmin: -2.707e-07  t[s]:    671.27
	FillingsUpdate:  mu: -0.107621960  nElectrons: 1110.000000
	SubspaceRotationAdjust: set factor to 0.128
ElecMinimize: Iter:  35  F: -7019.916760235441870  |grad|_K:  7.483e-07  alpha:  3.689e-01  linmin:  1.167e-07  t[s]:    683.24
	FillingsUpdate:  mu: -0.107686043  nElectrons: 1110.000000
	SubspaceRotationAdjust: set factor to 0.127
ElecMinimize: Iter:  36  F: -7019.916786995271650  |grad|_K:  6.470e-07  alpha:  3.165e-01  linmin:  7.754e-07  t[s]:    695.20
	FillingsUpdate:  mu: -0.107692025  nElectrons: 1110.000000
	SubspaceRotationAdjust: set factor to 0.129
ElecMinimize: Iter:  37  F: -7019.916806012284724  |grad|_K:  5.089e-07  alpha:  3.012e-01  linmin:  1.339e-06  t[s]:    707.26
	FillingsUpdate:  mu: -0.107622962  nElectrons: 1110.000000
	SubspaceRotationAdjust: set factor to 0.134
ElecMinimize: Iter:  38  F: -7019.916818286986199  |grad|_K:  4.237e-07  alpha:  3.145e-01  linmin:  1.727e-06  t[s]:    719.27
	FillingsUpdate:  mu: -0.107679476  nElectrons: 1110.000000
	SubspaceRotationAdjust: set factor to 0.143
ElecMinimize: Iter:  39  F: -7019.916825919245639  |grad|_K:  3.610e-07  alpha:  2.822e-01  linmin:  1.722e-06  t[s]:    731.28
	FillingsUpdate:  mu: -0.107702134  nElectrons: 1110.000000
	SubspaceRotationAdjust: set factor to 0.162
ElecMinimize: Iter:  40  F: -7019.916832935432467  |grad|_K:  3.106e-07  alpha:  3.575e-01  linmin:  2.220e-06  t[s]:    743.22
	FillingsUpdate:  mu: -0.107691471  nElectrons: 1110.000000
	SubspaceRotationAdjust: set factor to 0.193
ElecMinimize: Iter:  41  F: -7019.916837557830149  |grad|_K:  2.791e-07  alpha:  3.184e-01  linmin:  1.350e-06  t[s]:    755.20
	FillingsUpdate:  mu: -0.107706786  nElectrons: 1110.000000
	SubspaceRotationAdjust: set factor to 0.222
ElecMinimize: Iter:  42  F: -7019.916841751578431  |grad|_K:  2.743e-07  alpha:  3.575e-01  linmin:  1.099e-06  t[s]:    767.21
	FillingsUpdate:  mu: -0.107738274  nElectrons: 1110.000000
	SubspaceRotationAdjust: set factor to 0.236
ElecMinimize: Iter:  43  F: -7019.916845160491903  |grad|_K:  2.867e-07  alpha:  3.008e-01  linmin:  3.626e-07  t[s]:    779.28
	FillingsUpdate:  mu: -0.107720074  nElectrons: 1110.000000
	SubspaceRotationAdjust: set factor to 0.211
ElecMinimize: Iter:  44  F: -7019.916847902364680  |grad|_K:  2.818e-07  alpha:  2.211e-01  linmin:  1.140e-07  t[s]:    791.23
	FillingsUpdate:  mu: -0.107720474  nElectrons: 1110.000000
	SubspaceRotationAdjust: set factor to 0.191
ElecMinimize: Iter:  45  F: -7019.916850258249724  |grad|_K:  2.254e-07  alpha:  1.965e-01  linmin:  1.919e-08  t[s]:    803.21
	FillingsUpdate:  mu: -0.107745233  nElectrons: 1110.000000
	SubspaceRotationAdjust: set factor to 0.183
ElecMinimize: Iter:  46  F: -7019.916852446978737  |grad|_K:  2.112e-07  alpha:  2.853e-01  linmin: -3.310e-08  t[s]:    815.11
	FillingsUpdate:  mu: -0.107759863  nElectrons: 1110.000000
	SubspaceRotationAdjust: set factor to 0.169
ElecMinimize: Iter:  47  F: -7019.916854174947730  |grad|_K:  1.724e-07  alpha:  2.563e-01  linmin: -2.073e-08  t[s]:    827.10
	FillingsUpdate:  mu: -0.107747861  nElectrons: 1110.000000
	SubspaceRotationAdjust: set factor to 0.164
ElecMinimize: Iter:  48  F: -7019.916855524880702  |grad|_K:  1.498e-07  alpha:  3.007e-01  linmin: -9.048e-09  t[s]:    839.03
	FillingsUpdate:  mu: -0.107745967  nElectrons: 1110.000000
	SubspaceRotationAdjust: set factor to 0.171
ElecMinimize: Iter:  49  F: -7019.916856543846734  |grad|_K:  1.197e-07  alpha:  3.007e-01  linmin:  2.383e-07  t[s]:    850.92
	FillingsUpdate:  mu: -0.107746190  nElectrons: 1110.000000
	SubspaceRotationAdjust: set factor to 0.162
ElecMinimize: Iter:  50  F: -7019.916857185275148  |grad|_K:  1.220e-07  alpha:  2.967e-01  linmin:  2.387e-07  t[s]:    862.89
	FillingsUpdate:  mu: -0.107737900  nElectrons: 1110.000000
	SubspaceRotationAdjust: set factor to 0.155
ElecMinimize: Iter:  51  F: -7019.916857685481773  |grad|_K:  8.983e-08  alpha:  2.227e-01  linmin:  4.924e-07  t[s]:    874.86
	FillingsUpdate:  mu: -0.107742569  nElectrons: 1110.000000
	SubspaceRotationAdjust: set factor to 0.18
ElecMinimize: Iter:  52  F: -7019.916858064531880  |grad|_K:  7.974e-08  alpha:  3.117e-01  linmin:  3.727e-07  t[s]:    886.84
	FillingsUpdate:  mu: -0.107746368  nElectrons: 1110.000000
	SubspaceRotationAdjust: set factor to 0.22
ElecMinimize: Iter:  53  F: -7019.916858364328618  |grad|_K:  6.792e-08  alpha:  3.129e-01  linmin:  4.523e-07  t[s]:    898.82
	FillingsUpdate:  mu: -0.107736839  nElectrons: 1110.000000
	SubspaceRotationAdjust: set factor to 0.219
ElecMinimize: Iter:  54  F: -7019.916858609373776  |grad|_K:  7.408e-08  alpha:  3.525e-01  linmin:  3.031e-07  t[s]:    910.80
	FillingsUpdate:  mu: -0.107732241  nElectrons: 1110.000000
	SubspaceRotationAdjust: set factor to 0.214
ElecMinimize: Iter:  55  F: -7019.916858783586576  |grad|_K:  7.064e-08  alpha:  2.107e-01  linmin:  1.146e-07  t[s]:    922.77
	FillingsUpdate:  mu: -0.107733580  nElectrons: 1110.000000
	SubspaceRotationAdjust: set factor to 0.227
ElecMinimize: Iter:  56  F: -7019.916858952000439  |grad|_K:  6.179e-08  alpha:  2.236e-01  linmin:  9.638e-08  t[s]:    934.84
	FillingsUpdate:  mu: -0.107732948  nElectrons: 1110.000000
	SubspaceRotationAdjust: set factor to 0.23
ElecMinimize: Iter:  57  F: -7019.916859107035634  |grad|_K:  5.984e-08  alpha:  2.693e-01  linmin:  8.036e-08  t[s]:    946.83
	FillingsUpdate:  mu: -0.107730221  nElectrons: 1110.000000
	SubspaceRotationAdjust: set factor to 0.227
ElecMinimize: Iter:  58  F: -7019.916859232524985  |grad|_K:  4.998e-08  alpha:  2.324e-01  linmin:  4.602e-08  t[s]:    958.67
	FillingsUpdate:  mu: -0.107728498  nElectrons: 1110.000000
	SubspaceRotationAdjust: set factor to 0.215
ElecMinimize: Iter:  59  F: -7019.916859344564728  |grad|_K:  5.007e-08  alpha:  2.971e-01  linmin:  2.943e-08  t[s]:    970.56
	FillingsUpdate:  mu: -0.107732810  nElectrons: 1110.000000
	SubspaceRotationAdjust: set factor to 0.184
ElecMinimize: Iter:  60  F: -7019.916859417229716  |grad|_K:  4.196e-08  alpha:  1.924e-01  linmin:  2.337e-08  t[s]:    982.38
	FillingsUpdate:  mu: -0.107729988  nElectrons: 1110.000000
	SubspaceRotationAdjust: set factor to 0.17
ElecMinimize: Iter:  61  F: -7019.916859482828841  |grad|_K:  3.872e-08  alpha:  2.463e-01  linmin:  3.840e-08  t[s]:    994.37
	FillingsUpdate:  mu: -0.107728075  nElectrons: 1110.000000
	SubspaceRotationAdjust: set factor to 0.162
ElecMinimize: Iter:  62  F: -7019.916859534760079  |grad|_K:  3.113e-08  alpha:  2.302e-01  linmin:  7.512e-08  t[s]:   1006.32
	FillingsUpdate:  mu: -0.107728653  nElectrons: 1110.000000
	SubspaceRotationAdjust: set factor to 0.18
ElecMinimize: Iter:  63  F: -7019.916859576958814  |grad|_K:  2.689e-08  alpha:  2.892e-01  linmin:  2.682e-07  t[s]:   1018.30
	FillingsUpdate:  mu: -0.107729264  nElectrons: 1110.000000
	SubspaceRotationAdjust: set factor to 0.185
ElecMinimize: Iter:  64  F: -7019.916859606021717  |grad|_K:  2.570e-08  alpha:  2.681e-01  linmin:  2.740e-07  t[s]:   1030.25
	FillingsUpdate:  mu: -0.107731545  nElectrons: 1110.000000
	SubspaceRotationAdjust: set factor to 0.193
ElecMinimize: Iter:  65  F: -7019.916859628699967  |grad|_K:  2.219e-08  alpha:  2.297e-01  linmin:  3.067e-07  t[s]:   1042.25
	FillingsUpdate:  mu: -0.107729868  nElectrons: 1110.000000
	SubspaceRotationAdjust: set factor to 0.227
ElecMinimize: Iter:  66  F: -7019.916859647322781  |grad|_K:  1.987e-08  alpha:  2.535e-01  linmin:  6.043e-07  t[s]:   1054.21
	FillingsUpdate:  mu: -0.107729695  nElectrons: 1110.000000
	SubspaceRotationAdjust: set factor to 0.264
ElecMinimize: Iter:  67  F: -7019.916859664863296  |grad|_K:  1.868e-08  alpha:  2.996e-01  linmin:  6.087e-08  t[s]:   1066.24
	FillingsUpdate:  mu: -0.107732591  nElectrons: 1110.000000
	SubspaceRotationAdjust: set factor to 0.225
ElecMinimize: Iter:  68  F: -7019.916859678503897  |grad|_K:  2.113e-08  alpha:  2.563e-01  linmin:  7.764e-08  t[s]:   1078.17
	FillingsUpdate:  mu: -0.107731086  nElectrons: 1110.000000
	SubspaceRotationAdjust: set factor to 0.207
ElecMinimize: Iter:  69  F: -7019.916859688789373  |grad|_K:  1.728e-08  alpha:  1.533e-01  linmin: -1.729e-08  t[s]:   1090.11
	FillingsUpdate:  mu: -0.107731277  nElectrons: 1110.000000
	SubspaceRotationAdjust: set factor to 0.25
ElecMinimize: Iter:  70  F: -7019.916859700782879  |grad|_K:  1.496e-08  alpha:  2.675e-01  linmin: -1.747e-07  t[s]:   1102.05
	FillingsUpdate:  mu: -0.107733138  nElectrons: 1110.000000
	SubspaceRotationAdjust: set factor to 0.252
ElecMinimize: Iter:  71  F: -7019.916859709778691  |grad|_K:  1.547e-08  alpha:  2.661e-01  linmin:  1.291e-07  t[s]:   1114.06
	FillingsUpdate:  mu: -0.107732172  nElectrons: 1110.000000
	SubspaceRotationAdjust: set factor to 0.217
ElecMinimize: Iter:  72  F: -7019.916859716448926  |grad|_K:  1.506e-08  alpha:  1.792e-01  linmin:  6.947e-08  t[s]:   1126.02
ElecMinimize: Converged (|Delta F|<1.000000e-08 for 2 iters).
Setting wave functions to eigenvectors of Hamiltonian
Vacuum energy after initial minimize, F = -7019.916859716448926


-------- Electronic minimization -----------
	Linear fluid (dielectric constant: 7.2) occupying 0.777343 of unit cell:	Completed after 12 iterations at t[s]:   1127.98
	FillingsUpdate:  mu: -0.120156278  nElectrons: 1110.000000
ElecMinimize: Iter:   0  F: -7019.964280086573126  |grad|_K:  1.199e-05  alpha:  1.000e+00
	Linear fluid (dielectric constant: 7.2) occupying 0.778040 of unit cell:	Completed after 11 iterations at t[s]:   1138.03
	Linear fluid (dielectric constant: 7.2) occupying 0.777461 of unit cell:	Completed after 10 iterations at t[s]:   1141.54
	FillingsUpdate:  mu: -0.121882257  nElectrons: 1110.000000
	SubspaceRotationAdjust: set factor to 0.152
ElecMinimize: Iter:   1  F: -7019.967523885206901  |grad|_K:  8.640e-06  alpha:  1.474e-01  linmin: -1.999e-04  t[s]:   1146.49
	Linear fluid (dielectric constant: 7.2) occupying 0.777641 of unit cell:	Completed after 7 iterations at t[s]:   1150.74
	Linear fluid (dielectric constant: 7.2) occupying 0.777793 of unit cell:	Completed after 7 iterations at t[s]:   1154.13
	FillingsUpdate:  mu: -0.120625217  nElectrons: 1110.000000
	SubspaceRotationAdjust: set factor to 0.164
ElecMinimize: Iter:   2  F: -7019.970648658172649  |grad|_K:  7.248e-06  alpha:  2.797e-01  linmin:  1.194e-04  t[s]:   1159.16
	Linear fluid (dielectric constant: 7.2) occupying 0.778103 of unit cell:	Completed after 9 iterations at t[s]:   1163.48
	Linear fluid (dielectric constant: 7.2) occupying 0.778143 of unit cell:	Completed after 6 iterations at t[s]:   1166.86
	FillingsUpdate:  mu: -0.119676146  nElectrons: 1110.000000
	SubspaceRotationAdjust: set factor to 0.191
ElecMinimize: Iter:   3  F: -7019.973076111382397  |grad|_K:  5.505e-06  alpha:  3.207e-01  linmin:  2.444e-05  t[s]:   1171.87
	Linear fluid (dielectric constant: 7.2) occupying 0.778408 of unit cell:	Completed after 9 iterations at t[s]:   1176.22
	Linear fluid (dielectric constant: 7.2) occupying 0.778433 of unit cell:	Completed after 5 iterations at t[s]:   1179.59
	FillingsUpdate:  mu: -0.119475710  nElectrons: 1110.000000
	SubspaceRotationAdjust: set factor to 0.193
ElecMinimize: Iter:   4  F: -7019.974672201698922  |grad|_K:  5.820e-06  alpha:  3.523e-01  linmin: -1.336e-05  t[s]:   1184.60
	Linear fluid (dielectric constant: 7.2) occupying 0.778696 of unit cell:	Completed after 9 iterations at t[s]:   1188.97
	Linear fluid (dielectric constant: 7.2) occupying 0.778621 of unit cell:	Completed after 7 iterations at t[s]:   1192.40
	FillingsUpdate:  mu: -0.118554046  nElectrons: 1110.000000
	SubspaceRotationAdjust: set factor to 0.181
ElecMinimize: Iter:   5  F: -7019.975940685453679  |grad|_K:  4.724e-06  alpha:  2.475e-01  linmin: -2.370e-05  t[s]:   1197.48
	Linear fluid (dielectric constant: 7.2) occupying 0.778659 of unit cell:	Completed after 8 iterations at t[s]:   1201.82
	Linear fluid (dielectric constant: 7.2) occupying 0.778654 of unit cell:	Completed after 5 iterations at t[s]:   1205.16
	FillingsUpdate:  mu: -0.118152497  nElectrons: 1110.000000
	SubspaceRotationAdjust: set factor to 0.162
ElecMinimize: Iter:   6  F: -7019.976672513871563  |grad|_K:  3.549e-06  alpha:  2.146e-01  linmin: -1.298e-05  t[s]:   1211.69
	Linear fluid (dielectric constant: 7.2) occupying 0.778625 of unit cell:	Completed after 6 iterations at t[s]:   1220.12
	Linear fluid (dielectric constant: 7.2) occupying 0.778603 of unit cell:	Completed after 5 iterations at t[s]:   1223.56
	FillingsUpdate:  mu: -0.118195083  nElectrons: 1110.000000
	SubspaceRotationAdjust: set factor to 0.181
ElecMinimize: Iter:   7  F: -7019.977358368427304  |grad|_K:  2.890e-06  alpha:  3.572e-01  linmin: -1.855e-05  t[s]:   1228.50
	Linear fluid (dielectric constant: 7.2) occupying 0.778607 of unit cell:	Completed after 6 iterations at t[s]:   1232.79
	Linear fluid (dielectric constant: 7.2) occupying 0.778607 of unit cell:	Completed after 2 iterations at t[s]:   1236.09
	FillingsUpdate:  mu: -0.118310873  nElectrons: 1110.000000
	SubspaceRotationAdjust: set factor to 0.181
ElecMinimize: Iter:   8  F: -7019.977773697846715  |grad|_K:  2.516e-06  alpha:  3.255e-01  linmin: -1.079e-06  t[s]:   1240.93
	Linear fluid (dielectric constant: 7.2) occupying 0.778623 of unit cell:	Completed after 6 iterations at t[s]:   1245.22
	Linear fluid (dielectric constant: 7.2) occupying 0.778622 of unit cell:	Completed after 2 iterations at t[s]:   1248.57
	FillingsUpdate:  mu: -0.117983421  nElectrons: 1110.000000
	SubspaceRotationAdjust: set factor to 0.161
ElecMinimize: Iter:   9  F: -7019.978054130774581  |grad|_K:  2.154e-06  alpha:  2.931e-01  linmin:  3.295e-06  t[s]:   1253.44
	Linear fluid (dielectric constant: 7.2) occupying 0.778586 of unit cell:	Completed after 5 iterations at t[s]:   1257.71
	Linear fluid (dielectric constant: 7.2) occupying 0.778591 of unit cell:	Completed after 2 iterations at t[s]:   1261.01
	FillingsUpdate:  mu: -0.117694265  nElectrons: 1110.000000
	SubspaceRotationAdjust: set factor to 0.155
ElecMinimize: Iter:  10  F: -7019.978228899901296  |grad|_K:  1.822e-06  alpha:  2.498e-01  linmin:  8.576e-06  t[s]:   1265.95
	Linear fluid (dielectric constant: 7.2) occupying 0.778525 of unit cell:	Completed after 5 iterations at t[s]:   1270.21
	Linear fluid (dielectric constant: 7.2) occupying 0.778514 of unit cell:	Completed after 2 iterations at t[s]:   1273.58
	FillingsUpdate:  mu: -0.117864171  nElectrons: 1110.000000
	SubspaceRotationAdjust: set factor to 0.157
ElecMinimize: Iter:  11  F: -7019.978373148263927  |grad|_K:  1.424e-06  alpha:  2.905e-01  linmin:  1.566e-05  t[s]:   1278.59
	Linear fluid (dielectric constant: 7.2) occupying 0.778453 of unit cell:	Completed after 5 iterations at t[s]:   1282.86
	Linear fluid (dielectric constant: 7.2) occupying 0.778449 of unit cell:	Completed after 1 iterations at t[s]:   1286.17
	FillingsUpdate:  mu: -0.117916681  nElectrons: 1110.000000
	SubspaceRotationAdjust: set factor to 0.15
ElecMinimize: Iter:  12  F: -7019.978466039304294  |grad|_K:  1.116e-06  alpha:  3.077e-01  linmin:  1.728e-05  t[s]:   1291.17
	Linear fluid (dielectric constant: 7.2) occupying 0.778416 of unit cell:	Completed after 5 iterations at t[s]:   1295.42
	Linear fluid (dielectric constant: 7.2) occupying 0.778415 of unit cell:	Completed after 0 iterations at t[s]:   1298.68
	FillingsUpdate:  mu: -0.117882407  nElectrons: 1110.000000
	SubspaceRotationAdjust: set factor to 0.138
ElecMinimize: Iter:  13  F: -7019.978523961798601  |grad|_K:  9.983e-07  alpha:  3.124e-01  linmin:  1.531e-05  t[s]:   1303.62
	Linear fluid (dielectric constant: 7.2) occupying 0.778381 of unit cell:	Completed after 5 iterations at t[s]:   1307.89
	Linear fluid (dielectric constant: 7.2) occupying 0.778386 of unit cell:	Completed after 2 iterations at t[s]:   1311.23
	FillingsUpdate:  mu: -0.118111593  nElectrons: 1110.000000
	SubspaceRotationAdjust: set factor to 0.114
ElecMinimize: Iter:  14  F: -7019.978563671828852  |grad|_K:  6.669e-07  alpha:  2.654e-01  linmin:  3.106e-05  t[s]:   1316.10
	Linear fluid (dielectric constant: 7.2) occupying 0.778360 of unit cell:	Completed after 3 iterations at t[s]:   1320.31
	Linear fluid (dielectric constant: 7.2) occupying 0.778349 of unit cell:	Completed after 2 iterations at t[s]:   1323.61
	FillingsUpdate:  mu: -0.118080525  nElectrons: 1110.000000
	SubspaceRotationAdjust: set factor to 0.129
ElecMinimize: Iter:  15  F: -7019.978587982216595  |grad|_K:  5.354e-07  alpha:  3.784e-01  linmin:  6.950e-05  t[s]:   1328.59
	Linear fluid (dielectric constant: 7.2) occupying 0.778322 of unit cell:	Completed after 3 iterations at t[s]:   1332.77
	Linear fluid (dielectric constant: 7.2) occupying 0.778324 of unit cell:	Completed after 1 iterations at t[s]:   1336.04
	FillingsUpdate:  mu: -0.118091670  nElectrons: 1110.000000
	SubspaceRotationAdjust: set factor to 0.132
ElecMinimize: Iter:  16  F: -7019.978601993234406  |grad|_K:  4.265e-07  alpha:  3.450e-01  linmin:  7.263e-05  t[s]:   1341.02
	Linear fluid (dielectric constant: 7.2) occupying 0.778311 of unit cell:	Completed after 2 iterations at t[s]:   1345.20
	Linear fluid (dielectric constant: 7.2) occupying 0.778312 of unit cell:	Completed after 1 iterations at t[s]:   1348.48
	FillingsUpdate:  mu: -0.118092380  nElectrons: 1110.000000
	SubspaceRotationAdjust: set factor to 0.125
ElecMinimize: Iter:  17  F: -7019.978610184513855  |grad|_K:  3.453e-07  alpha:  3.185e-01  linmin:  1.166e-04  t[s]:   1353.45
	Linear fluid (dielectric constant: 7.2) occupying 0.778300 of unit cell:	Completed after 2 iterations at t[s]:   1357.64
	Linear fluid (dielectric constant: 7.2) occupying 0.778298 of unit cell:	Completed after 1 iterations at t[s]:   1360.91
	FillingsUpdate:  mu: -0.118110347  nElectrons: 1110.000000
	SubspaceRotationAdjust: set factor to 0.108
ElecMinimize: Iter:  18  F: -7019.978615954629277  |grad|_K:  3.050e-07  alpha:  3.728e-01  linmin:  1.409e-04  t[s]:   1365.90
	Linear fluid (dielectric constant: 7.2) occupying 0.778282 of unit cell:	Completed after 3 iterations at t[s]:   1370.10
	Linear fluid (dielectric constant: 7.2) occupying 0.778286 of unit cell:	Completed after 1 iterations at t[s]:   1373.39
	FillingsUpdate:  mu: -0.118111181  nElectrons: 1110.000000
	SubspaceRotationAdjust: set factor to 0.0991
ElecMinimize: Iter:  19  F: -7019.978619368480395  |grad|_K:  2.520e-07  alpha:  2.827e-01  linmin:  9.844e-05  t[s]:   1378.38
	Linear fluid (dielectric constant: 7.2) occupying 0.778277 of unit cell:	Completed after 2 iterations at t[s]:   1382.57
	Linear fluid (dielectric constant: 7.2) occupying 0.778273 of unit cell:	Completed after 1 iterations at t[s]:   1385.83
	FillingsUpdate:  mu: -0.118133937  nElectrons: 1110.000000
	SubspaceRotationAdjust: set factor to 0.0939
ElecMinimize: Iter:  20  F: -7019.978622282945253  |grad|_K:  2.223e-07  alpha:  4.179e-01  linmin:  1.910e-04  t[s]:   1390.74
	Linear fluid (dielectric constant: 7.2) occupying 0.778268 of unit cell:	Completed after 2 iterations at t[s]:   1394.94
	Linear fluid (dielectric constant: 7.2) occupying 0.778268 of unit cell:	Completed after 0 iterations at t[s]:   1398.17
	FillingsUpdate:  mu: -0.118126773  nElectrons: 1110.000000
	SubspaceRotationAdjust: set factor to 0.0967
ElecMinimize: Iter:  21  F: -7019.978624280121949  |grad|_K:  1.948e-07  alpha:  4.271e-01  linmin:  1.393e-04  t[s]:   1403.05
	Linear fluid (dielectric constant: 7.2) occupying 0.778263 of unit cell:	Completed after 1 iterations at t[s]:   1407.22
	Linear fluid (dielectric constant: 7.2) occupying 0.778263 of unit cell:	Completed after 0 iterations at t[s]:   1410.48
	FillingsUpdate:  mu: -0.118125911  nElectrons: 1110.000000
	SubspaceRotationAdjust: set factor to 0.0953
ElecMinimize: Iter:  22  F: -7019.978626024309051  |grad|_K:  1.686e-07  alpha:  4.338e-01  linmin:  1.484e-04  t[s]:   1415.41
	Linear fluid (dielectric constant: 7.2) occupying 0.778258 of unit cell:	Completed after 2 iterations at t[s]:   1419.65
	Linear fluid (dielectric constant: 7.2) occupying 0.778259 of unit cell:	Completed after 1 iterations at t[s]:   1422.92
	FillingsUpdate:  mu: -0.118147156  nElectrons: 1110.000000
	SubspaceRotationAdjust: set factor to 0.0888
ElecMinimize: Iter:  23  F: -7019.978627060859253  |grad|_K:  1.346e-07  alpha:  3.137e-01  linmin:  1.256e-04  t[s]:   1427.90
	Linear fluid (dielectric constant: 7.2) occupying 0.778258 of unit cell:	Completed after 2 iterations at t[s]:   1432.21
	Linear fluid (dielectric constant: 7.2) occupying 0.778257 of unit cell:	Completed after 1 iterations at t[s]:   1435.49
	FillingsUpdate:  mu: -0.118125508  nElectrons: 1110.000000
	SubspaceRotationAdjust: set factor to 0.0833
ElecMinimize: Iter:  24  F: -7019.978627742232675  |grad|_K:  1.575e-07  alpha:  5.438e-01  linmin:  2.114e-04  t[s]:   1440.46
	Linear fluid (dielectric constant: 7.2) occupying 0.778256 of unit cell:	Completed after 2 iterations at t[s]:   1444.78
	Linear fluid (dielectric constant: 7.2) occupying 0.778256 of unit cell:	Completed after 1 iterations at t[s]:   1448.03
	FillingsUpdate:  mu: -0.118130734  nElectrons: 1110.000000
	SubspaceRotationAdjust: set factor to 0.0929
ElecMinimize: Iter:  25  F: -7019.978628146529445  |grad|_K:  1.243e-07  alpha:  1.889e-01  linmin:  4.434e-05  t[s]:   1453.04
	Linear fluid (dielectric constant: 7.2) occupying 0.778256 of unit cell:	Completed after 1 iterations at t[s]:   1457.31
	Linear fluid (dielectric constant: 7.2) occupying 0.778256 of unit cell:	Completed after 1 iterations at t[s]:   1460.57
	FillingsUpdate:  mu: -0.118144112  nElectrons: 1110.000000
	SubspaceRotationAdjust: set factor to 0.0915
ElecMinimize: Iter:  26  F: -7019.978628624805424  |grad|_K:  1.303e-07  alpha:  3.039e-01  linmin:  1.344e-04  t[s]:   1465.57
	Linear fluid (dielectric constant: 7.2) occupying 0.778253 of unit cell:	Completed after 1 iterations at t[s]:   1469.84
	Linear fluid (dielectric constant: 7.2) occupying 0.778254 of unit cell:	Completed after 1 iterations at t[s]:   1480.19
	FillingsUpdate:  mu: -0.118137260  nElectrons: 1110.000000
	SubspaceRotationAdjust: set factor to 0.102
ElecMinimize: Iter:  27  F: -7019.978628874206152  |grad|_K:  1.028e-07  alpha:  1.556e-01  linmin:  4.632e-05  t[s]:   1485.17
	Linear fluid (dielectric constant: 7.2) occupying 0.778253 of unit cell:	Completed after 1 iterations at t[s]:   1489.88
	Linear fluid (dielectric constant: 7.2) occupying 0.778252 of unit cell:	Completed after 0 iterations at t[s]:   1493.13
	FillingsUpdate:  mu: -0.118127812  nElectrons: 1110.000000
	SubspaceRotationAdjust: set factor to 0.103
ElecMinimize: Iter:  28  F: -7019.978629108874884  |grad|_K:  8.298e-08  alpha:  1.757e-01  linmin:  5.914e-05  t[s]:   1498.13
	Linear fluid (dielectric constant: 7.2) occupying 0.778251 of unit cell:	Completed after 1 iterations at t[s]:   1502.46
	Linear fluid (dielectric constant: 7.2) occupying 0.778251 of unit cell:	Completed after 0 iterations at t[s]:   1505.67
	FillingsUpdate:  mu: -0.118126883  nElectrons: 1110.000000
	SubspaceRotationAdjust: set factor to 0.114
ElecMinimize: Iter:  29  F: -7019.978629286651994  |grad|_K:  7.838e-08  alpha:  2.241e-01  linmin:  4.919e-05  t[s]:   1510.56
	Linear fluid (dielectric constant: 7.2) occupying 0.778251 of unit cell:	Completed after 0 iterations at t[s]:   1514.84
	Linear fluid (dielectric constant: 7.2) occupying 0.778251 of unit cell:	Completed after 1 iterations at t[s]:   1518.09
	FillingsUpdate:  mu: -0.118133724  nElectrons: 1110.000000
	SubspaceRotationAdjust: set factor to 0.122
ElecMinimize: Iter:  30  F: -7019.978629385877866  |grad|_K:  6.531e-08  alpha:  1.277e-01  linmin:  2.835e-05  t[s]:   1523.02
	Linear fluid (dielectric constant: 7.2) occupying 0.778252 of unit cell:	Completed after 0 iterations at t[s]:   1527.24
	Linear fluid (dielectric constant: 7.2) occupying 0.778252 of unit cell:	Completed after 0 iterations at t[s]:   1530.45
	FillingsUpdate:  mu: -0.118131860  nElectrons: 1110.000000
	SubspaceRotationAdjust: set factor to 0.147
ElecMinimize: Iter:  31  F: -7019.978629492205982  |grad|_K:  5.528e-08  alpha:  1.857e-01  linmin:  1.312e-05  t[s]:   1535.40
	Linear fluid (dielectric constant: 7.2) occupying 0.778253 of unit cell:	Completed after 1 iterations at t[s]:   1539.65
	Linear fluid (dielectric constant: 7.2) occupying 0.778253 of unit cell:	Completed after 0 iterations at t[s]:   1542.85
	FillingsUpdate:  mu: -0.118133286  nElectrons: 1110.000000
	SubspaceRotationAdjust: set factor to 0.157
ElecMinimize: Iter:  32  F: -7019.978629553676001  |grad|_K:  4.922e-08  alpha:  1.434e-01  linmin: -1.754e-06  t[s]:   1547.79
	Linear fluid (dielectric constant: 7.2) occupying 0.778253 of unit cell:	Completed after 0 iterations at t[s]:   1551.99
	Linear fluid (dielectric constant: 7.2) occupying 0.778253 of unit cell:	Completed after 0 iterations at t[s]:   1555.19
	FillingsUpdate:  mu: -0.118133521  nElectrons: 1110.000000
	SubspaceRotationAdjust: set factor to 0.182
ElecMinimize: Iter:  33  F: -7019.978629595196253  |grad|_K:  4.141e-08  alpha:  1.170e-01  linmin: -3.542e-05  t[s]:   1560.21
	Linear fluid (dielectric constant: 7.2) occupying 0.778254 of unit cell:	Completed after 0 iterations at t[s]:   1564.33
	Linear fluid (dielectric constant: 7.2) occupying 0.778254 of unit cell:	Completed after 0 iterations at t[s]:   1567.52
	FillingsUpdate:  mu: -0.118133528  nElectrons: 1110.000000
	SubspaceRotationAdjust: set factor to 0.242
ElecMinimize: Iter:  34  F: -7019.978629628839371  |grad|_K:  3.467e-08  alpha:  1.125e-01  linmin: -1.130e-04  t[s]:   1572.47
	Linear fluid (dielectric constant: 7.2) occupying 0.778254 of unit cell:	Completed after 1 iterations at t[s]:   1576.62
	Linear fluid (dielectric constant: 7.2) occupying 0.778254 of unit cell:	Completed after 0 iterations at t[s]:   1579.85
	FillingsUpdate:  mu: -0.118127034  nElectrons: 1110.000000
	SubspaceRotationAdjust: set factor to 0.276
ElecMinimize: Iter:  35  F: -7019.978629638447273  |grad|_K:  3.441e-08  alpha:  6.392e-02  linmin: -7.882e-05  t[s]:   1584.80
	Linear fluid (dielectric constant: 7.2) occupying 0.778254 of unit cell:	Completed after 0 iterations at t[s]:   1588.96
	Linear fluid (dielectric constant: 7.2) occupying 0.778254 of unit cell:	Completed after 0 iterations at t[s]:   1592.15
	FillingsUpdate:  mu: -0.118127001  nElectrons: 1110.000000
	SubspaceRotationAdjust: set factor to 0.267
ElecMinimize: Iter:  36  F: -7019.978629647717753  |grad|_K:  3.332e-08  alpha:  4.516e-02  linmin: -1.139e-04  t[s]:   1597.05
ElecMinimize: Converged (|Delta F|<1.000000e-08 for 2 iters).
Setting wave functions to eigenvectors of Hamiltonian
Single-point solvation energy estimate, DeltaF = -0.061769931268827

# Ionic positions in cartesian coordinates:
ion Ni  32.181130469222218  -0.000028463333331   0.611327655000000 0
ion Ni   5.363545148055554  -0.000028463333331   5.974853827499991 0
ion Ni  32.181130469222218  -5.363543250499998   5.974853827499991 0
ion Ni   5.363545148055554  -5.363543250499998   0.611327655000000 0
ion Ni  32.181130469222218 -10.727058037666666   0.611327655000000 0
ion Ni  32.181130469222218 -21.454087611999999   0.611327655000000 0
ion Ni   5.363545148055554 -21.454087611999999   5.974853827499991 0
ion Ni   5.363545148055554 -10.727058037666666   5.974853827499991 0
ion Ni  32.181130469222218 -16.090572824833334   5.974853827499991 0
ion Ni  32.181130469222218 -26.817602399166642   5.974853827499991 0
ion Ni   5.363545148055554 -26.817602399166642   0.611327655000000 0
ion Ni   5.363545148055554 -16.090572824833334   0.611327655000000 0
ion Ni  10.727071320555540  -0.000028463333331   0.611327655000000 0
ion Ni  21.454100894888885  -0.000028463333331   0.611327655000000 0
ion Ni  21.454100894888885  -5.363543250499998   5.974853827499991 0
ion Ni  10.727071320555540  -5.363543250499998   5.974853827499991 0
ion Ni  16.090574722388887  -5.363543250499998   0.611327655000000 0
ion Ni  26.817604296722198  -5.363543250499998   0.611327655000000 0
ion Ni  26.817604296722198  -0.000028463333331   5.974853827499991 0
ion Ni  16.090574722388887  -0.000028463333331   5.974853827499991 0
ion Ni  10.727071320555540 -10.727058037666666   0.611327655000000 0
ion Ni  21.454100894888885 -21.454087611999999   0.611327655000000 0
ion Ni  26.817604296722198 -21.454087611999999   5.974853827499991 0
ion Ni  16.090574722388887 -10.727058037666666   5.974853827499991 0
ion Ni  21.454100894888885 -16.090572824833334   5.974853827499991 0
ion Ni  10.727071320555540 -26.817602399166642   5.974853827499991 0
ion Ni  16.090574722388887 -26.817602399166642   0.611327655000000 0
ion Ni  26.817604296722198 -16.090572824833334   0.611327655000000 0
ion Ni  10.727071320555540 -21.454087611999999   0.611327655000000 0
ion Ni  21.454100894888885 -10.727058037666666   0.611327655000000 0
ion Ni  26.817604296722198 -10.727058037666666   5.974853827499991 0
ion Ni  16.090574722388887 -21.454087611999999   5.974853827499991 0
ion Ni  21.454100894888885 -26.817602399166642   5.974853827499991 0
ion Ni  10.727071320555540 -16.090572824833334   5.974853827499991 0
ion Ni  16.090574722388887 -16.090572824833334   0.611327655000000 0
ion Ni  26.817604296722198 -26.817602399166642   0.611327655000000 0
ion S   4.232269668888879  -4.232271970733331   7.106125994099994 0
ion S  27.948891161222196 -27.948885064266644   4.843581660899996 0
ion S   1.131317225388885 -27.948885064266644   1.742599821599998 0
ion S   9.595784456055540  -4.232271970733331  10.207107833399991 0
ion S  27.948891161222196  -9.595786757899997  10.207107833399991 0
ion S   4.232269668888879  -1.131311128433331   1.742599821599998 0
ion S   9.595784456055540  -1.131311128433331   4.843581660899996 0
ion S   1.131317225388885  -9.595786757899997   7.106125994099994 0
ion S   4.232269668888879 -14.959301545066653   7.106125994099994 0
ion S  27.948891161222196 -17.221855489933308   4.843581660899996 0
ion S   1.131317225388885 -17.221855489933308   1.742599821599998 0
ion S   9.595784456055540 -14.959301545066653  10.207107833399991 0
ion S  27.948891161222196 -20.322816332233330  10.207107833399991 0
ion S   4.232269668888879 -22.585370277100001   1.742599821599998 0
ion S   9.595784456055540 -22.585370277100001   4.843581660899996 0
ion S   1.131317225388885 -20.322816332233330   7.106125994099994 0
ion S  14.959299243222208  -4.232271970733330   7.106125994099994 0
ion S  17.221861586888888 -27.948885064266644   4.843581660899996 0
ion S  17.221861586888888  -9.595786757899997  10.207107833399991 0
ion S  14.959299243222208  -1.131311128433331   1.742599821599998 0
ion S  20.322814030388887  -1.131311128433331   4.843581660899996 0
ion S  22.585376374055553  -9.595786757899997   7.106125994099994 0
ion S  22.585376374055553 -27.948885064266644   1.742599821599998 0
ion S  20.322814030388887  -4.232271970733330  10.207107833399991 0
ion S   4.232269668888879 -25.686331119399977   7.106125994099994 0
ion S  27.948891161222196  -6.494825915599992   4.843581660899996 0
ion S   1.131317225388885  -6.494825915599992   1.742599821599998 0
ion S   9.595784456055540 -25.686331119399977  10.207107833399991 0
ion S  27.948891161222196 -31.049845906566667  10.207107833399991 0
ion S   4.232269668888879 -11.858340702766654   1.742599821599998 0
ion S   9.595784456055540 -11.858340702766654   4.843581660899996 0
ion S   1.131317225388885 -31.049845906566667   7.106125994099994 0
ion S  25.686328817555530  -4.232271970733330   7.106125994099994 0
ion S   6.494832012555547 -27.948885064266644   4.843581660899996 0
ion S   6.494832012555547  -9.595786757899997  10.207107833399991 0
ion S  25.686328817555530  -1.131311128433331   1.742599821599998 0
ion S  31.049843604722220  -1.131311128433331   4.843581660899996 0
ion S  11.858346799722209  -9.595786757899997   7.106125994099994 0
ion S  11.858346799722209 -27.948885064266644   1.742599821599998 0
ion S  31.049843604722220  -4.232271970733330  10.207107833399991 0
ion S  14.959299243222208 -14.959301545066653   7.106125994099994 0
ion S  17.221861586888888 -17.221855489933308   4.843581660899996 0
ion S  22.585376374055553 -17.221855489933308   1.742599821599998 0
ion S  20.322814030388887 -14.959301545066653  10.207107833399991 0
ion S  17.221861586888888 -20.322816332233330  10.207107833399991 0
ion S  14.959299243222208 -22.585370277100001   1.742599821599998 0
ion S  20.322814030388887 -22.585370277100001   4.843581660899996 0
ion S  22.585376374055553 -20.322816332233330   7.106125994099994 0
ion S  14.959299243222208 -25.686331119399977   7.106125994099994 0
ion S  17.221861586888888  -6.494825915599992   4.843581660899996 0
ion S  22.585376374055553  -6.494825915599992   1.742599821599998 0
ion S  20.322814030388887 -25.686331119399977  10.207107833399991 0
ion S  17.221861586888888 -31.049845906566667  10.207107833399991 0
ion S  14.959299243222208 -11.858340702766654   1.742599821599998 0
ion S  20.322814030388887 -11.858340702766654   4.843581660899996 0
ion S  22.585376374055553 -31.049845906566667   7.106125994099994 0
ion S  25.686328817555530 -14.959301545066653   7.106125994099994 0
ion S   6.494832012555547 -17.221855489933308   4.843581660899996 0
ion S  11.858346799722209 -17.221855489933308   1.742599821599998 0
ion S  31.049843604722220 -14.959301545066653  10.207107833399991 0
ion S   6.494832012555547 -20.322816332233330  10.207107833399991 0
ion S  25.686328817555530 -22.585370277100001   1.742599821599998 0
ion S  31.049843604722220 -22.585370277100001   4.843581660899996 0
ion S  11.858346799722209 -20.322816332233330   7.106125994099994 0
ion S  25.686328817555530 -25.686331119399977   7.106125994099994 0
ion S   6.494832012555547  -6.494825915599992   4.843581660899996 0
ion S  11.858346799722209  -6.494825915599992   1.742599821599998 0
ion S  31.049843604722220 -25.686331119399977  10.207107833399991 0
ion S   6.494832012555547 -31.049845906566667  10.207107833399991 0
ion S  25.686328817555530 -11.858340702766654   1.742599821599998 0
ion S  31.049843604722220 -11.858340702766654   4.843581660899996 0
ion S  11.858346799722209 -31.049845906566667   7.106125994099994 0
ion S  22.073101273691503 -16.801313493397917  12.903415698242060 1
ion S  14.158399616325404 -19.433561382763294  11.982669504594526 1
ion Na   4.420528436048222 -26.305191926387131  12.270216360786934 1
ion Na  26.595090820234368 -14.175433835040568  12.615749748593815 1

# Forces in Cartesian coordinates:
force Ni   0.023296293962719   0.011374344254087   0.034576244175198 0
force Ni  -0.002850189450523   0.000142426566160   0.010752763886932 0
force Ni   0.001936239330191   0.000145652809105   0.012077673137503 0
force Ni  -0.023453836199531   0.011360818546823   0.034570795187674 0
force Ni   0.023350873275412   0.011386960302423   0.034538733736012 0
force Ni   0.023382475602195   0.011419133215760   0.034639303037817 0
force Ni  -0.001753606934434   0.001039380102302   0.011526822072269 0
force Ni  -0.002066125516897   0.000321407141404   0.011838623536413 0
force Ni   0.001527247453433  -0.000168399236279   0.010582637530110 0
force Ni   0.001806496675448  -0.000305873881558   0.010829928909368 0
force Ni  -0.023670954591171   0.011672382339825   0.034543901094392 0
force Ni  -0.023506429398222   0.011422483366555   0.034607545633568 0
force Ni   0.023326136390920   0.011429091692139   0.034489349571064 0
force Ni   0.023306293563109   0.011352298810680   0.034561737378266 0
force Ni   0.002086297451823   0.000641299582024   0.011945633336585 0
force Ni   0.002277087152147   0.000151349347709   0.011940620417706 0
force Ni  -0.023439130785112   0.011387194462885   0.034596721677651 0
force Ni  -0.023455617531666   0.011336554228049   0.034543035475516 0
force Ni  -0.002098414114482   0.000240087814732   0.011753065446419 0
force Ni  -0.002240759582433   0.000407024549545   0.011925055636176 0
force Ni   0.023354552612101   0.011372424048495   0.034471728063372 0
force Ni   0.023349874015400   0.011825028779712   0.033797683479840 0
force Ni  -0.001760488861453  -0.000118712337445   0.012299341420716 0
force Ni  -0.001374138357712   0.000057483709769   0.012616272223383 0
force Ni   0.006227898396339  -0.004259719161955   0.004019049936319 0
force Ni   0.001820322783864  -0.000074263879297   0.010707391358053 0
force Ni  -0.023440757344257   0.011487472900088   0.034466521305449 0
force Ni  -0.024002023918395   0.011618367276079   0.034358584675511 0
force Ni   0.023576552488746   0.011281307038008   0.034239707171853 0
force Ni   0.023590188454293   0.011134033544951   0.033836066490778 0
force Ni  -0.002255843178553   0.000004568875410   0.010481882202275 0
force Ni  -0.003184138199531  -0.004382597915341   0.002413352720269 0
force Ni   0.002719509578649  -0.000569947411849   0.011595122805204 0
force Ni   0.001027540683169  -0.000011861057154   0.012330778319618 0
force Ni  -0.023468446327781   0.011262788908607   0.033420876962802 0
force Ni  -0.023442032775861   0.011363988829984   0.034532330393635 0
force S  -0.004531241262226   0.004258441066245   0.003546403477486 0
force S   0.003094243672187  -0.000494134191657  -0.011230026626899 0
force S  -0.002676522048551  -0.006839152874787  -0.019011572451436 0
force S  -0.002821236214066  -0.010192040779035  -0.021059246774475 0
force S   0.001749575034062  -0.006594501582211  -0.019978710539277 0
force S   0.002674868045514  -0.006855511155729  -0.018808700700762 0
force S  -0.002903406951441  -0.000713594775885  -0.011200905923004 0
force S   0.004891755245307   0.004112375393848   0.003034615928362 0
force S  -0.003815791418688   0.003733371276691   0.002809684621688 0
force S   0.004262136901443  -0.001888095331950  -0.010442872650821 0
force S  -0.002592191701951  -0.006928467566189  -0.018675685875451 0
force S  -0.000839820814613  -0.008832590964322  -0.019142981084222 0
force S   0.002320299512961  -0.007150023305225  -0.018572427378202 0
force S   0.002541370280119  -0.006909511278832  -0.019306443088638 0
force S  -0.004494534937988  -0.001531001336017  -0.013903550593713 0
force S   0.004522887050060   0.004031917597096   0.002964422545394 0
force S  -0.004461886629690   0.004430153938519   0.003302199391679 0
force S   0.003781680498843  -0.000466977075445  -0.011296968287303 0
force S  -0.000430610646601  -0.001957789836265  -0.020430838261736 0
force S   0.002597424683671  -0.006978622298282  -0.019089122808783 0
force S  -0.003069327458018  -0.000807228164239  -0.011459753044109 0
force S   0.004709639390999   0.004392232101283   0.003474889173867 0
force S  -0.002672946468634  -0.006786303332843  -0.018940911811034 0
force S  -0.003678722938855  -0.008651645533132  -0.020636641764542 0
force S  -0.008835434605240   0.006899223795358  -0.005425878301947 0
force S   0.003021972474005  -0.000608010618608  -0.011665307787619 0
force S  -0.002555933169514  -0.006870399952841  -0.019027189099802 0
force S  -0.001244850995998  -0.006854213206683  -0.017619652521765 0
force S   0.003524056150258  -0.008981115120321  -0.020554066366051 0
force S   0.002594688860362  -0.006927129981458  -0.019011957022941 0
force S  -0.003267902015135  -0.000447339471680  -0.011749876794231 0
force S   0.004825361204189   0.004037369250436   0.003045536020337 0
force S  -0.004394500361299   0.004010768905152   0.003351205603557 0
force S   0.005618891851797  -0.003083326036414  -0.011347417173404 0
force S   0.003514690794819  -0.008042005498000  -0.020551980436478 0
force S   0.002551278641389  -0.006826777884814  -0.018972495259146 0
force S  -0.003483519920805  -0.001072602266824  -0.011539648552512 0
force S   0.004672821069039   0.004205853554624   0.003611677117168 0
force S  -0.002635709521480  -0.007009992208858  -0.018636433171971 0
force S  -0.002469808399334  -0.006103689714597  -0.020579455126180 0
force S  -0.004734039939153   0.005649937157344   0.000497563163894 0
force S   0.003717870840648   0.000188253548514  -0.008799906516057 0
force S  -0.001795581103828  -0.008106937207885  -0.021360450381724 0
force S  -0.000320462732080  -0.002144280149248  -0.004699025737007 0
force S  -0.000360572513999  -0.009368790721974  -0.008153513341531 0
force S   0.001091808075638  -0.007357571819205  -0.020714336383674 0
force S  -0.005028673300186  -0.000056475027110  -0.009285930016732 0
force S   0.003944262737017   0.003553223362957   0.001569839019270 0
force S  -0.004385786844294   0.004607946435498   0.002792190356032 0
force S   0.002936128466729  -0.000704391788769  -0.011240168017694 0
force S  -0.002456605411528  -0.006839027413116  -0.019080712908190 0
force S  -0.001223291124217  -0.011799439545870  -0.021810228059249 0
force S   0.003563431998915  -0.008280692037997  -0.020723689530402 0
force S   0.002500551984918  -0.006683341720316  -0.019274960032460 0
force S  -0.003403908969151  -0.001247651057153  -0.011100827727139 0
force S   0.004388219804086   0.004144363945709   0.003429881115657 0
force S  -0.006373043842003   0.005558128037138  -0.003752614131121 0
force S   0.002759795762041  -0.000482022045996  -0.011462566331168 0
force S  -0.002379072641401  -0.006905393953808  -0.018840238405185 0
force S   0.004028102009678  -0.009173321127807  -0.019838716418328 0
force S   0.002374263387410  -0.009631479636030  -0.019828816065086 0
force S   0.002703562456084  -0.007003171075384  -0.018972528285501 0
force S  -0.003250172085538  -0.000589916216688  -0.011620351508731 0
force S   0.002723542054028   0.003278697163815   0.002492534380556 0
force S  -0.005050157076372   0.003746945223577   0.003003477688211 0
force S   0.003253974429086  -0.000828923053667  -0.011423649396931 0
force S  -0.002545379948722  -0.006875512515518  -0.018978536412540 0
force S  -0.000122930517448  -0.009007948551893  -0.018821162048086 0
force S   0.002200728882090  -0.008315831296172  -0.019343160544915 0
force S   0.002592720442734  -0.006710731520623  -0.019209614388469 0
force S  -0.002860947264169  -0.000277207132464  -0.011650017051060 0
force S   0.004708577110239   0.003681970825623   0.003070313517391 0
force S  -0.002514693551914  -0.000694606897925  -0.002258169354240 1
force S  -0.001351174375231   0.000418673349725   0.000837441366573 1
force Na  -0.000684523838829   0.000166779268808   0.007124191457753 1
force Na   0.000563554277954   0.000759498450291   0.005754242416804 1

# Energy components:
   A_diel =       -0.0807369362894099
   Eewald =    37727.4851579112728359
       EH =    43926.1156625212752260
     Eloc =   -89894.6061756057024468
      Enl =      909.1332746229463737
      Exc =     -962.0238701724331349
 Exc_core =      145.2505322204307276
       KE =     1129.7645464975407776
-------------------------------------
     Etot =    -7018.9616089409573760
       TS =        1.0170207067605421
-------------------------------------
        F =    -7019.9786296477177530

IonicMinimize: Iter:   0  F: -7019.978629647717753  |grad|_K:  2.885e-03  alpha:  1.000e+00

#--- Lowdin population analysis ---
# oxidation-state Ni +0.010 -0.445 -0.447 +0.010 +0.009 +0.009 -0.446 -0.447 -0.441 -0.447 +0.010 +0.010 +0.010 +0.010 -0.447 -0.447 +0.011 +0.010 -0.447 -0.447 +0.011 +0.009 -0.441 -0.452 -0.470 -0.444 +0.010 +0.009 +0.008 +0.011 -0.448 -0.470 -0.445 -0.445 +0.010 +0.010
# oxidation-state S +0.314 +0.445 +0.086 -0.066 -0.180 +0.087 +0.444 +0.314 +0.313 +0.446 +0.087 -0.070 -0.106 +0.085 +0.436 +0.309 +0.317 +0.445 -0.108 +0.086 +0.445 +0.297 +0.086 -0.068 +0.239 +0.445 +0.086 -0.159 -0.072 +0.086 +0.443 +0.306 +0.314 +0.442 -0.071 +0.087 +0.445 +0.316 +0.088 -0.071 +0.271 +0.428 +0.082 +0.231 +0.277 +0.082 +0.439 +0.272 +0.305 +0.445 +0.085 -0.112 -0.066 +0.085 +0.425 +0.315 +0.247 +0.445 +0.084 -0.185 -0.127 +0.085 +0.444 +0.318 +0.313 +0.444 +0.087 -0.157 -0.165 +0.086 +0.443 +0.314 -0.133 +0.034
# oxidation-state Na +0.795 +0.766


-------- Electronic minimization -----------
	Linear fluid (dielectric constant: 7.2) occupying 0.778267 of unit cell:	Completed after 5 iterations at t[s]:   1605.92
	FillingsUpdate:  mu: -0.118048804  nElectrons: 1110.000000
ElecMinimize: Iter:   0  F: -7019.978720730886380  |grad|_K:  6.360e-07  alpha:  1.000e+00
	Linear fluid (dielectric constant: 7.2) occupying 0.778256 of unit cell:	Completed after 6 iterations at t[s]:   1615.84
	Linear fluid (dielectric constant: 7.2) occupying 0.778266 of unit cell:	Completed after 6 iterations at t[s]:   1619.21
	FillingsUpdate:  mu: -0.118077168  nElectrons: 1110.000000
	SubspaceRotationAdjust: set factor to 0.219
ElecMinimize: Iter:   1  F: -7019.978725435023989  |grad|_K:  2.018e-07  alpha:  7.720e-02  linmin: -1.023e-04  t[s]:   1624.19
	Linear fluid (dielectric constant: 7.2) occupying 0.778266 of unit cell:	Completed after 1 iterations at t[s]:   1628.39
[...]
	Linear fluid (dielectric constant: 7.2) occupying 0.777714 of unit cell:	Completed after 0 iterations at t[s]:  42993.75
ElecMinimize: 	Predicted alpha/alphaT>3.000000, increasing alphaT to 4.260598e-01.
	Linear fluid (dielectric constant: 7.2) occupying 0.777714 of unit cell:	Completed after 1 iterations at t[s]:  42997.28
	Linear fluid (dielectric constant: 7.2) occupying 0.777714 of unit cell:	Completed after 0 iterations at t[s]:  43000.65
	FillingsUpdate:  mu: -0.111719225  nElectrons: 1110.000000
	SubspaceRotationAdjust: set factor to 0.126
ElecMinimize: Iter:   4  F: -7019.990616804067940  |grad|_K:  2.143e-08  alpha:  1.949e-01  linmin:  2.630e-03  t[s]:  43005.73
	Linear fluid (dielectric constant: 7.2) occupying 0.777714 of unit cell:	Completed after 0 iterations at t[s]:  43010.03
	Linear fluid (dielectric constant: 7.2) occupying 0.777714 of unit cell:	Completed after 0 iterations at t[s]:  43013.35
	FillingsUpdate:  mu: -0.111727133  nElectrons: 1110.000000
	SubspaceRotationAdjust: set factor to 0.195
ElecMinimize: Iter:   5  F: -7019.990616817764021  |grad|_K:  1.262e-08  alpha:  2.258e-01  linmin: -5.331e-03  t[s]:  43018.48
	Linear fluid (dielectric constant: 7.2) occupying 0.777714 of unit cell:	Completed after 1 iterations at t[s]:  43022.69
	Linear fluid (dielectric constant: 7.2) occupying 0.777714 of unit cell:	Completed after 0 iterations at t[s]:  43026.09
ElecMinimize: 	Step increased F by 2.555680e-10, reducing alpha to 6.385943e-03.
	Linear fluid (dielectric constant: 7.2) occupying 0.777714 of unit cell:	Completed after 0 iterations at t[s]:  43034.12
	FillingsUpdate:  mu: -0.111721058  nElectrons: 1110.000000
	SubspaceRotationAdjust: set factor to 0.171
ElecMinimize: Iter:   6  F: -7019.990616820768992  |grad|_K:  2.906e-08  alpha:  6.386e-03  linmin:  6.888e-03  t[s]:  43039.14
ElecMinimize: 	Bad step direction: g.d > 0.
ElecMinimize: 	Undoing step.
	Linear fluid (dielectric constant: 7.2) occupying 0.777714 of unit cell:	Completed after 0 iterations at t[s]:  43043.37
ElecMinimize: 	Step failed: resetting search direction.
	FillingsUpdate:  mu: -0.111721058  nElectrons: 1110.000000
	SubspaceRotationAdjust: set factor to 0.159
ElecMinimize: Iter:   7  F: -7019.990616820794457  |grad|_K:  2.804e-08  alpha:  0.000e+00
ElecMinimize: Converged (|Delta F|<1.000000e-08 for 2 iters).
Setting wave functions to eigenvectors of Hamiltonian

# Ionic positions in cartesian coordinates:
ion Ni  32.181130469222218  -0.000028463333331   0.611327655000000 0
ion Ni   5.363545148055554  -0.000028463333331   5.974853827499991 0
ion Ni  32.181130469222218  -5.363543250499998   5.974853827499991 0
ion Ni   5.363545148055554  -5.363543250499998   0.611327655000000 0
ion Ni  32.181130469222218 -10.727058037666666   0.611327655000000 0
ion Ni  32.181130469222218 -21.454087611999999   0.611327655000000 0
ion Ni   5.363545148055554 -21.454087611999999   5.974853827499991 0
ion Ni   5.363545148055554 -10.727058037666666   5.974853827499991 0
ion Ni  32.181130469222218 -16.090572824833334   5.974853827499991 0
ion Ni  32.181130469222218 -26.817602399166642   5.974853827499991 0
ion Ni   5.363545148055554 -26.817602399166642   0.611327655000000 0
ion Ni   5.363545148055554 -16.090572824833334   0.611327655000000 0
ion Ni  10.727071320555540  -0.000028463333331   0.611327655000000 0
ion Ni  21.454100894888885  -0.000028463333331   0.611327655000000 0
ion Ni  21.454100894888885  -5.363543250499998   5.974853827499991 0
ion Ni  10.727071320555540  -5.363543250499998   5.974853827499991 0
ion Ni  16.090574722388887  -5.363543250499998   0.611327655000000 0
ion Ni  26.817604296722198  -5.363543250499998   0.611327655000000 0
ion Ni  26.817604296722198  -0.000028463333331   5.974853827499991 0
ion Ni  16.090574722388887  -0.000028463333331   5.974853827499991 0
ion Ni  10.727071320555540 -10.727058037666666   0.611327655000000 0
ion Ni  21.454100894888885 -21.454087611999999   0.611327655000000 0
ion Ni  26.817604296722198 -21.454087611999999   5.974853827499991 0
ion Ni  16.090574722388887 -10.727058037666666   5.974853827499991 0
ion Ni  21.454100894888885 -16.090572824833334   5.974853827499991 0
ion Ni  10.727071320555540 -26.817602399166642   5.974853827499991 0
ion Ni  16.090574722388887 -26.817602399166642   0.611327655000000 0
ion Ni  26.817604296722198 -16.090572824833334   0.611327655000000 0
ion Ni  10.727071320555540 -21.454087611999999   0.611327655000000 0
ion Ni  21.454100894888885 -10.727058037666666   0.611327655000000 0
ion Ni  26.817604296722198 -10.727058037666666   5.974853827499991 0
ion Ni  16.090574722388887 -21.454087611999999   5.974853827499991 0
ion Ni  21.454100894888885 -26.817602399166642   5.974853827499991 0
ion Ni  10.727071320555540 -16.090572824833334   5.974853827499991 0
ion Ni  16.090574722388887 -16.090572824833334   0.611327655000000 0
ion Ni  26.817604296722198 -26.817602399166642   0.611327655000000 0
ion S   4.232269668888879  -4.232271970733331   7.106125994099994 0
ion S  27.948891161222196 -27.948885064266644   4.843581660899996 0
ion S   1.131317225388885 -27.948885064266644   1.742599821599998 0
ion S   9.595784456055540  -4.232271970733331  10.207107833399991 0
ion S  27.948891161222196  -9.595786757899997  10.207107833399991 0
ion S   4.232269668888879  -1.131311128433331   1.742599821599998 0
ion S   9.595784456055540  -1.131311128433331   4.843581660899996 0
ion S   1.131317225388885  -9.595786757899997   7.106125994099994 0
ion S   4.232269668888879 -14.959301545066653   7.106125994099994 0
ion S  27.948891161222196 -17.221855489933308   4.843581660899996 0
ion S   1.131317225388885 -17.221855489933308   1.742599821599998 0
ion S   9.595784456055540 -14.959301545066653  10.207107833399991 0
ion S  27.948891161222196 -20.322816332233330  10.207107833399991 0
ion S   4.232269668888879 -22.585370277100001   1.742599821599998 0
ion S   9.595784456055540 -22.585370277100001   4.843581660899996 0
ion S   1.131317225388885 -20.322816332233330   7.106125994099994 0
ion S  14.959299243222208  -4.232271970733330   7.106125994099994 0
ion S  17.221861586888888 -27.948885064266644   4.843581660899996 0
ion S  17.221861586888888  -9.595786757899997  10.207107833399991 0
ion S  14.959299243222208  -1.131311128433331   1.742599821599998 0
ion S  20.322814030388887  -1.131311128433331   4.843581660899996 0
ion S  22.585376374055553  -9.595786757899997   7.106125994099994 0
ion S  22.585376374055553 -27.948885064266644   1.742599821599998 0
ion S  20.322814030388887  -4.232271970733330  10.207107833399991 0
ion S   4.232269668888879 -25.686331119399977   7.106125994099994 0
ion S  27.948891161222196  -6.494825915599992   4.843581660899996 0
ion S   1.131317225388885  -6.494825915599992   1.742599821599998 0
ion S   9.595784456055540 -25.686331119399977  10.207107833399991 0
ion S  27.948891161222196 -31.049845906566667  10.207107833399991 0
ion S   4.232269668888879 -11.858340702766654   1.742599821599998 0
ion S   9.595784456055540 -11.858340702766654   4.843581660899996 0
ion S   1.131317225388885 -31.049845906566667   7.106125994099994 0
ion S  25.686328817555530  -4.232271970733330   7.106125994099994 0
ion S   6.494832012555547 -27.948885064266644   4.843581660899996 0
ion S   6.494832012555547  -9.595786757899997  10.207107833399991 0
ion S  25.686328817555530  -1.131311128433331   1.742599821599998 0
ion S  31.049843604722220  -1.131311128433331   4.843581660899996 0
ion S  11.858346799722209  -9.595786757899997   7.106125994099994 0
ion S  11.858346799722209 -27.948885064266644   1.742599821599998 0
ion S  31.049843604722220  -4.232271970733330  10.207107833399991 0
ion S  14.959299243222208 -14.959301545066653   7.106125994099994 0
ion S  17.221861586888888 -17.221855489933308   4.843581660899996 0
ion S  22.585376374055553 -17.221855489933308   1.742599821599998 0
ion S  20.322814030388887 -14.959301545066653  10.207107833399991 0
ion S  17.221861586888888 -20.322816332233330  10.207107833399991 0
ion S  14.959299243222208 -22.585370277100001   1.742599821599998 0
ion S  20.322814030388887 -22.585370277100001   4.843581660899996 0
ion S  22.585376374055553 -20.322816332233330   7.106125994099994 0
ion S  14.959299243222208 -25.686331119399977   7.106125994099994 0
ion S  17.221861586888888  -6.494825915599992   4.843581660899996 0
ion S  22.585376374055553  -6.494825915599992   1.742599821599998 0
ion S  20.322814030388887 -25.686331119399977  10.207107833399991 0
ion S  17.221861586888888 -31.049845906566667  10.207107833399991 0
ion S  14.959299243222208 -11.858340702766654   1.742599821599998 0
ion S  20.322814030388887 -11.858340702766654   4.843581660899996 0
ion S  22.585376374055553 -31.049845906566667   7.106125994099994 0
ion S  25.686328817555530 -14.959301545066653   7.106125994099994 0
ion S   6.494832012555547 -17.221855489933308   4.843581660899996 0
ion S  11.858346799722209 -17.221855489933308   1.742599821599998 0
ion S  31.049843604722220 -14.959301545066653  10.207107833399991 0
ion S   6.494832012555547 -20.322816332233330  10.207107833399991 0
ion S  25.686328817555530 -22.585370277100001   1.742599821599998 0
ion S  31.049843604722220 -22.585370277100001   4.843581660899996 0
ion S  11.858346799722209 -20.322816332233330   7.106125994099994 0
ion S  25.686328817555530 -25.686331119399977   7.106125994099994 0
ion S   6.494832012555547  -6.494825915599992   4.843581660899996 0
ion S  11.858346799722209  -6.494825915599992   1.742599821599998 0
ion S  31.049843604722220 -25.686331119399977  10.207107833399991 0
ion S   6.494832012555547 -31.049845906566667  10.207107833399991 0
ion S  25.686328817555530 -11.858340702766654   1.742599821599998 0
ion S  31.049843604722220 -11.858340702766654   4.843581660899996 0
ion S  11.858346799722209 -31.049845906566667   7.106125994099994 0
ion S  23.407801450523998 -14.147820254674318  11.992838396758577 1
ion S  14.171724001085865 -19.334387905323478  11.993977912819005 1
ion Na   4.411944892200227 -26.305483776013144  12.682490738407814 1
ion Na  31.027788287792902 -11.279339849823291  14.535349954209813 1

# Forces in Cartesian coordinates:
force Ni   0.023276877015625   0.011388237388569   0.034639127575003 0
force Ni  -0.002952356575254   0.000125162269157   0.010768144811116 0
force Ni   0.002211275509709   0.000179639963264   0.011620727775586 0
force Ni  -0.023430735598686   0.011361594215654   0.034618921106601 0
force Ni   0.023378025724359   0.011460176202339   0.034345849714815 0
force Ni   0.023394796898162   0.011375965976992   0.034712168699667 0
force Ni  -0.001861897217924   0.000814297457889   0.011427276696360 0
force Ni  -0.002048023825296   0.000244063180246   0.011636747851471 0
force Ni   0.002866821919661   0.000339512226645   0.010638058273485 0
force Ni   0.002002168855899  -0.000219522838169   0.010778610939231 0
force Ni  -0.023663378909538   0.011627419552501   0.034537558686127 0
force Ni  -0.023530220382328   0.011413486423491   0.034725188393705 0
force Ni   0.023325862857482   0.011433493032798   0.034564697763081 0
force Ni   0.023301875711234   0.011375241331369   0.034631825060600 0
force Ni   0.002022256517336   0.000431858765513   0.011972812370595 0
force Ni   0.002253107320719   0.000062627700545   0.011889328177325 0
force Ni  -0.023442577553815   0.011394080432074   0.034639229526357 0
force Ni  -0.023473580708470   0.011363884832874   0.034562806524888 0
force Ni  -0.002098142275380   0.000168445148499   0.011768688749660 0
force Ni  -0.002259824978878   0.000344481787079   0.011974585307198 0
force Ni   0.023311342023050   0.011344824233118   0.034513701425430 0
force Ni   0.023207680711651   0.011750176854748   0.034063983157421 0
force Ni  -0.001251100219682   0.000116820901124   0.012478945957999 0
force Ni  -0.002116299730935   0.000536118276553   0.011910492954519 0
force Ni   0.002730981688999  -0.002857284498441   0.002244122342222 0
force Ni   0.001803840219895  -0.000145578320520   0.010732521926124 0
force Ni  -0.023426299367806   0.011531420158715   0.034568292203940 0
force Ni  -0.023699972883029   0.011316363275290   0.034259512603493 0
force Ni   0.023534855449934   0.011336055468886   0.034332608894227 0
force Ni   0.023421299359559   0.011195882706892   0.033812198941431 0
force Ni  -0.001389483931670  -0.001322333966097   0.010590108818903 0
force Ni  -0.003493410993936  -0.004189839522820   0.002250049319058 0
force Ni   0.002751408548451  -0.000620462415239   0.011615680114091 0
force Ni   0.000912492791712  -0.000215375144420   0.012463026642288 0
force Ni  -0.023441974263131   0.011358000011083   0.033119354522751 0
force Ni  -0.023424015378696   0.011393227559954   0.034632863352884 0
force S  -0.004533445454721   0.004239641722427   0.003232678098137 0
force S   0.003007182086975  -0.000500791524346  -0.011250355137931 0
force S  -0.002694174023197  -0.006864066158680  -0.019160265033961 0
force S  -0.002694048328850  -0.009797099666021  -0.020623640034543 0
force S   0.000168445696858  -0.007151024915720  -0.016188543394781 0
force S   0.002659479151967  -0.006912722452840  -0.018942771520659 0
force S  -0.002918202317767  -0.000686363805264  -0.011199197377210 0
force S   0.005258119630409   0.004527910486917   0.002719114808106 0
force S  -0.004172579231421   0.003893992655174   0.002848618378761 0
force S   0.004340986812225  -0.001526277309336  -0.013709073769265 0
force S  -0.002464799536589  -0.006858077066647  -0.018944110267991 0
force S  -0.000613394962873  -0.008804468155175  -0.018625161458678 0
force S   0.002654872419840  -0.007948991296286  -0.019854081612221 0
force S   0.002523470481083  -0.006843699121114  -0.019403266336865 0
force S  -0.004249735403537  -0.001411471726017  -0.013734850960615 0
force S   0.004497605720079   0.003863588216155   0.002863273455536 0
force S  -0.004505052402078   0.004373424445439   0.003137254054601 0
force S   0.003853737982440  -0.000460269159365  -0.011266723398051 0
force S   0.000740679602888  -0.004402383725370  -0.021115191763414 0
force S   0.002603523521898  -0.007004987017258  -0.019263460208572 0
force S  -0.002977058240803  -0.000822435176653  -0.011383328707855 0
force S   0.003612993143524   0.005560049857411   0.001087561639635 0
force S  -0.002628630407821  -0.006796077147610  -0.019106370640606 0
force S  -0.003555356602796  -0.008495994940270  -0.020448815650990 0
force S  -0.008078315944241   0.006046289079497  -0.000683819636134 0
force S   0.003013030895123  -0.000032687418564  -0.011935980396249 0
force S  -0.002544414412797  -0.006928626766804  -0.019163932773598 0
force S  -0.002169001558884  -0.006979113065048  -0.016973265373106 0
force S   0.003166412709914  -0.008666662737658  -0.020240695317856 0
force S   0.002544179501669  -0.006926539518374  -0.019190642349141 0
force S  -0.003175740844949  -0.000407210315936  -0.011795943047294 0
force S   0.004773295365305   0.004074279394458   0.002836912698632 0
force S  -0.004502407370903   0.004087415222904   0.002985694660498 0
force S   0.005174877344320  -0.002699557841490  -0.011278221870534 0
force S   0.003397400735523  -0.008026734819753  -0.020225615135712 0
force S   0.002529813988548  -0.006810673282223  -0.019138874117135 0
force S  -0.003400323016148  -0.000892542672054  -0.011574709437395 0
force S   0.004863605218688   0.004108889974801   0.003323146259092 0
force S  -0.002634949973528  -0.007011680436922  -0.018801246416878 0
force S  -0.003024486621791  -0.007694097426302  -0.019986580295844 0
force S  -0.004307358168022   0.005509754035426  -0.000468961676863 0
force S   0.003634119334048   0.000605773558448  -0.007706314404299 0
force S  -0.001226285945718  -0.007570806090632  -0.020733076311613 0
force S  -0.001412846293193  -0.001778999391184  -0.005471917783123 0
force S   0.000060646391538  -0.007555210827288  -0.005690082809386 0
force S   0.001183860129974  -0.007268422774765  -0.020578918841994 0
force S  -0.005313444013887  -0.000083796849512  -0.009506341775384 0
force S   0.004968255000647   0.003897919549762   0.002250036530594 0
force S  -0.004410019008253   0.004608419607017   0.002725685296889 0
force S   0.002887591183565  -0.000652996947238  -0.011212773500201 0
force S  -0.002489918862816  -0.006729238959332  -0.019464739044696 0
force S  -0.000965183226777  -0.011856013224374  -0.021498146745761 0
force S   0.003451328796792  -0.008296211390192  -0.020464071465578 0
force S   0.002567834671027  -0.006709832919208  -0.019473164157097 0
force S  -0.002382213215267   0.000019529456454  -0.009971037103236 0
force S   0.004375467643612   0.004080237481750   0.003295929705089 0
force S  -0.002531565062947   0.003127096701888   0.001735784102921 0
force S   0.002954199382318  -0.000591115211972  -0.011689738857044 0
force S  -0.002293297366256  -0.006891366516687  -0.019121984425324 0
force S  -0.003160126771474  -0.009267960514243  -0.018597452478085 0
force S   0.002215009351441  -0.009702313624240  -0.019292448921906 0
force S   0.002434461631574  -0.007181828044481  -0.019240567511283 0
force S  -0.003115915321169  -0.000846547002570  -0.011462682181235 0
force S   0.002551807044696   0.003176414297739   0.002300965217446 0
force S  -0.005003003221036   0.003709905835301   0.002810502425094 0
force S   0.003285393261637  -0.000724549384076  -0.011498780168286 0
force S  -0.002556342936388  -0.006917954079317  -0.019103430938025 0
force S   0.000056253184032  -0.008577673355581  -0.018000756930351 0
force S   0.001830485823956  -0.007414001163277  -0.018367424856916 0
force S   0.002466573795537  -0.006697721409909  -0.018592171169994 0
force S  -0.003380279761358  -0.000719280439616  -0.012107908959424 0
force S   0.004735581478853   0.003674389142977   0.002907062810168 0
force S   0.001193472711162   0.000506164713361   0.000759985595881 1
force S   0.000189398059023  -0.000078320709051  -0.000261159396314 1
force Na  -0.000015250904608  -0.000002957796853  -0.000240773596199 1
force Na   0.000043952642850   0.000000653973152   0.000058350803209 1

# Energy components:
   A_diel =       -0.1166617729725075
   Eewald =    37643.4163278552441625
       EH =    43852.1907814045189298
     Eloc =   -89736.5237634576624259
      Enl =      909.0913257708458559
      Exc =     -962.0098405601884224
 Exc_core =      145.2505318808979951
       KE =     1129.7228430566419775
-------------------------------------
     Etot =    -7018.9784558226847366
       TS =        1.0121609981098985
-------------------------------------
        F =    -7019.9906168207944575

IonicMinimize: Iter:  52  F: -7019.990616820794457  |grad|_K:  4.502e-04  alpha: -9.558e-01  linmin: -1.402e-03  t[s]:  43052.30
IonicMinimize: Converged (|Delta F|<1.000000e-06 for 2 iters).

#--- Lowdin population analysis ---
# oxidation-state Ni +0.007 -0.444 -0.447 +0.008 +0.008 +0.007 -0.447 -0.447 -0.440 -0.447 +0.005 +0.007 +0.006 +0.007 -0.445 -0.446 +0.008 +0.007 -0.446 -0.447 +0.009 +0.006 -0.442 -0.450 -0.475 -0.443 +0.006 +0.004 +0.003 +0.007 -0.441 -0.469 -0.446 -0.444 +0.007 +0.007
# oxidation-state S +0.311 +0.445 +0.086 -0.084 -0.182 +0.087 +0.444 +0.300 +0.308 +0.435 +0.088 -0.086 -0.097 +0.085 +0.437 +0.308 +0.315 +0.445 -0.118 +0.086 +0.445 +0.296 +0.086 -0.081 +0.253 +0.442 +0.086 -0.167 -0.089 +0.086 +0.443 +0.305 +0.312 +0.442 -0.109 +0.086 +0.444 +0.314 +0.087 -0.112 +0.261 +0.426 +0.082 +0.268 +0.256 +0.082 +0.438 +0.268 +0.304 +0.445 +0.084 -0.127 -0.080 +0.084 +0.433 +0.314 +0.319 +0.445 +0.083 -0.193 -0.143 +0.084 +0.445 +0.317 +0.312 +0.444 +0.086 -0.168 -0.178 +0.087 +0.443 +0.312 +0.001 +0.003
# oxidation-state Na +0.813 +0.897


Dumping 'Na2S2@NiS2_S-glyme.fillings' ... done
Dumping 'Na2S2@NiS2_S-glyme.wfns' ... done
Dumping 'Na2S2@NiS2_S-glyme.fluidState' ... done
Dumping 'Na2S2@NiS2_S-glyme.ionpos' ... done
Dumping 'Na2S2@NiS2_S-glyme.eigenvals' ... done
End date and time: Sat Oct  5 17:27:59 2024  (Duration: 0-11:57:40.25)
Done!
