
*************** JDFTx 1.7.0  ***************

Start date and time: Sat Oct  5 05:40:21 2024
Executable jdftx_gpu with command-line: -i /home/akim2/JDFTx/Na2S@NiS2_S/Na2S@NiS2_S.in -o /home/akim2/JDFTx/Na2S@NiS2_S/Na2S@NiS2_S.out
Running on hosts (process indices):  exp-1-57 (0)
Divided in process groups (process indices):  0 (0)
gpuInit: Found compatible cuda device 0 'Tesla V100-SXM2-32GB'
gpuInit: Selected device 0
Resource initialization completed at t[s]:      0.38
Run totals: 1 processes, 1 threads, 1 GPUs


Input parsed successfully to the following command list (including defaults):

basis kpoint-dependent
coords-type Cartesian
core-overlap-check vector
coulomb-interaction Slab 001
coulomb-truncation-embed 0 0 7
davidson-band-ratio 1.1
dump End State
dump-name Na2S@NiS2_S.$VAR
elec-cutoff 20 100
elec-eigen-algo Davidson
elec-ex-corr gga-PBE
elec-smearing Fermi 0.01
electronic-minimize  \
	dirUpdateScheme      FletcherReeves \
	linminMethod         DirUpdateRecommended \
	nIterations          100 \
	history              15 \
	knormThreshold       0 \
	energyDiffThreshold  1e-08 \
	nEnergyDiff          2 \
	alphaTstart          1 \
	alphaTmin            1e-10 \
	updateTestStepSize   yes \
	alphaTreduceFactor   0.1 \
	alphaTincreaseFactor 3 \
	nAlphaAdjustMax      3 \
	wolfeEnergy          0.0001 \
	wolfeGradient        0.9 \
	fdTest               no
exchange-regularization WignerSeitzTruncated
fluid None
fluid-ex-corr lda-TF lda-PZ
fluid-gummel-loop 10 1.000000e-05
fluid-minimize  \
	dirUpdateScheme      PolakRibiere \
	linminMethod         DirUpdateRecommended \
	nIterations          100 \
	history              15 \
	knormThreshold       0 \
	energyDiffThreshold  0 \
	nEnergyDiff          2 \
	alphaTstart          1 \
	alphaTmin            1e-10 \
	updateTestStepSize   yes \
	alphaTreduceFactor   0.1 \
	alphaTincreaseFactor 3 \
	nAlphaAdjustMax      3 \
	wolfeEnergy          0.0001 \
	wolfeGradient        0.9 \
	fdTest               no
fluid-solvent H2O 55.338 ScalarEOS \
	epsBulk 78.4 \
	pMol 0.92466 \
	epsInf 1.77 \
	Pvap 1.06736e-10 \
	sigmaBulk 4.62e-05 \
	Rvdw 2.61727 \
	Res 1.42 \
	tauNuc 343133 \
	poleEl 15 7 1
forces-output-coords Positions
ion Ni  32.181130469222218  -0.000028463333331   0.611327655000000 0
ion Ni   5.363545148055554  -0.000028463333331   5.974853827499991 0
ion Ni  32.181130469222218  -5.363543250499998   5.974853827499991 0
ion Ni   5.363545148055554  -5.363543250499998   0.611327655000000 0
ion Ni  32.181130469222218 -10.727058037666666   0.611327655000000 0
ion Ni  32.181130469222218 -21.454087611999999   0.611327655000000 0
ion Ni   5.363545148055554 -21.454087611999999   5.974853827499991 0
ion Ni   5.363545148055554 -10.727058037666666   5.974853827499991 0
ion Ni  32.181130469222218 -16.090572824833334   5.974853827499991 0
ion Ni  32.181130469222218 -26.817602399166642   5.974853827499991 0
ion Ni   5.363545148055554 -26.817602399166642   0.611327655000000 0
ion Ni   5.363545148055554 -16.090572824833334   0.611327655000000 0
ion Ni  10.727071320555540  -0.000028463333331   0.611327655000000 0
ion Ni  21.454100894888885  -0.000028463333331   0.611327655000000 0
ion Ni  21.454100894888885  -5.363543250499998   5.974853827499991 0
ion Ni  10.727071320555540  -5.363543250499998   5.974853827499991 0
ion Ni  16.090574722388887  -5.363543250499998   0.611327655000000 0
ion Ni  26.817604296722198  -5.363543250499998   0.611327655000000 0
ion Ni  26.817604296722198  -0.000028463333331   5.974853827499991 0
ion Ni  16.090574722388887  -0.000028463333331   5.974853827499991 0
ion Ni  10.727071320555540 -10.727058037666666   0.611327655000000 0
ion Ni  21.454100894888885 -21.454087611999999   0.611327655000000 0
ion Ni  26.817604296722198 -21.454087611999999   5.974853827499991 0
ion Ni  16.090574722388887 -10.727058037666666   5.974853827499991 0
ion Ni  21.454100894888885 -16.090572824833334   5.974853827499991 0
ion Ni  10.727071320555540 -26.817602399166642   5.974853827499991 0
ion Ni  16.090574722388887 -26.817602399166642   0.611327655000000 0
ion Ni  26.817604296722198 -16.090572824833334   0.611327655000000 0
ion Ni  10.727071320555540 -21.454087611999999   0.611327655000000 0
ion Ni  21.454100894888885 -10.727058037666666   0.611327655000000 0
ion Ni  26.817604296722198 -10.727058037666666   5.974853827499991 0
ion Ni  16.090574722388887 -21.454087611999999   5.974853827499991 0
ion Ni  21.454100894888885 -26.817602399166642   5.974853827499991 0
ion Ni  10.727071320555540 -16.090572824833334   5.974853827499991 0
ion Ni  16.090574722388887 -16.090572824833334   0.611327655000000 0
ion Ni  26.817604296722198 -26.817602399166642   0.611327655000000 0
ion S   4.232269668888879  -4.232271970733331   7.106125994099993 0
ion S  27.948891161222196 -27.948885064266644   4.843581660899996 0
ion S   1.131317225388885 -27.948885064266644   1.742599821599998 0
ion S   9.595784456055540  -4.232271970733331  10.207107833399990 0
ion S  27.948891161222196  -9.595786757899997  10.207107833399990 0
ion S   4.232269668888879  -1.131311128433331   1.742599821599998 0
ion S   9.595784456055540  -1.131311128433331   4.843581660899996 0
ion S   1.131317225388885  -9.595786757899997   7.106125994099993 0
ion S   4.232269668888879 -14.959301545066653   7.106125994099993 0
ion S  27.948891161222196 -17.221855489933308   4.843581660899996 0
ion S   1.131317225388885 -17.221855489933308   1.742599821599998 0
ion S   9.595784456055540 -14.959301545066653  10.207107833399990 0
ion S  27.948891161222196 -20.322816332233330  10.207107833399990 0
ion S   4.232269668888879 -22.585370277100001   1.742599821599998 0
ion S   9.595784456055540 -22.585370277100001   4.843581660899996 0
ion S   1.131317225388885 -20.322816332233330   7.106125994099993 0
ion S  14.959299243222208  -4.232271970733330   7.106125994099993 0
ion S  17.221861586888888 -27.948885064266644   4.843581660899996 0
ion S  17.221861586888888  -9.595786757899997  10.207107833399990 0
ion S  14.959299243222208  -1.131311128433331   1.742599821599998 0
ion S  20.322814030388887  -1.131311128433331   4.843581660899996 0
ion S  22.585376374055553  -9.595786757899997   7.106125994099993 0
ion S  22.585376374055553 -27.948885064266644   1.742599821599998 0
ion S  20.322814030388887  -4.232271970733330  10.207107833399990 0
ion S   4.232269668888879 -25.686331119399977   7.106125994099993 0
ion S  27.948891161222196  -6.494825915599992   4.843581660899996 0
ion S   1.131317225388885  -6.494825915599992   1.742599821599998 0
ion S   9.595784456055540 -25.686331119399977  10.207107833399990 0
ion S  27.948891161222196 -31.049845906566667  10.207107833399990 0
ion S   4.232269668888879 -11.858340702766654   1.742599821599998 0
ion S   9.595784456055540 -11.858340702766654   4.843581660899996 0
ion S   1.131317225388885 -31.049845906566667   7.106125994099993 0
ion S  25.686328817555530  -4.232271970733330   7.106125994099993 0
ion S   6.494832012555547 -27.948885064266644   4.843581660899996 0
ion S   6.494832012555547  -9.595786757899997  10.207107833399990 0
ion S  25.686328817555530  -1.131311128433331   1.742599821599998 0
ion S  31.049843604722220  -1.131311128433331   4.843581660899996 0
ion S  11.858346799722209  -9.595786757899997   7.106125994099993 0
ion S  11.858346799722209 -27.948885064266644   1.742599821599998 0
ion S  31.049843604722220  -4.232271970733330  10.207107833399990 0
ion S  14.959299243222208 -14.959301545066653   7.106125994099993 0
ion S  17.221861586888888 -17.221855489933308   4.843581660899996 0
ion S  22.585376374055553 -17.221855489933308   1.742599821599998 0
ion S  20.322814030388887 -14.959301545066653  10.207107833399990 0
ion S  17.221861586888888 -20.322816332233330  10.207107833399990 0
ion S  14.959299243222208 -22.585370277100001   1.742599821599998 0
ion S  20.322814030388887 -22.585370277100001   4.843581660899996 0
ion S  22.585376374055553 -20.322816332233330   7.106125994099993 0
ion S  14.959299243222208 -25.686331119399977   7.106125994099993 0
ion S  17.221861586888888  -6.494825915599992   4.843581660899996 0
ion S  22.585376374055553  -6.494825915599992   1.742599821599998 0
ion S  20.322814030388887 -25.686331119399977  10.207107833399990 0
ion S  17.221861586888888 -31.049845906566667  10.207107833399990 0
ion S  14.959299243222208 -11.858340702766654   1.742599821599998 0
ion S  20.322814030388887 -11.858340702766654   4.843581660899996 0
ion S  22.585376374055553 -31.049845906566667   7.106125994099993 0
ion S  25.686328817555530 -14.959301545066653   7.106125994099993 0
ion S   6.494832012555547 -17.221855489933308   4.843581660899996 0
ion S  11.858346799722209 -17.221855489933308   1.742599821599998 0
ion S  31.049843604722220 -14.959301545066653  10.207107833399990 0
ion S   6.494832012555547 -20.322816332233330  10.207107833399990 0
ion S  25.686328817555530 -22.585370277100001   1.742599821599998 0
ion S  31.049843604722220 -22.585370277100001   4.843581660899996 0
ion S  11.858346799722209 -20.322816332233330   7.106125994099993 0
ion S  25.686328817555530 -25.686331119399977   7.106125994099993 0
ion S   6.494832012555547  -6.494825915599992   4.843581660899996 0
ion S  11.858346799722209  -6.494825915599992   1.742599821599998 0
ion S  31.049843604722220 -25.686331119399977  10.207107833399990 0
ion S   6.494832012555547 -31.049845906566667  10.207107833399990 0
ion S  25.686328817555530 -11.858340702766654   1.742599821599998 0
ion S  31.049843604722220 -11.858340702766654   4.843581660899996 0
ion S  11.858346799722209 -31.049845906566667   7.106125994099993 0
ion S  16.581416987699999 -19.168835303699996  14.816271524099998 1
ion Na  13.522227577199999 -15.942348096300000  15.387360613999999 1
ion Na  20.978667519299993 -17.753162971499997  14.900426563499996 1
ion-species GBRV/$ID_pbe.uspp
ion-width 0
ionic-minimize  \
	dirUpdateScheme      FletcherReeves \
	linminMethod         DirUpdateRecommended \
	nIterations          200 \
	history              15 \
	knormThreshold       0.0001 \
	energyDiffThreshold  1e-06 \
	nEnergyDiff          2 \
	alphaTstart          1 \
	alphaTmin            1e-10 \
	updateTestStepSize   yes \
	alphaTreduceFactor   0.1 \
	alphaTincreaseFactor 3 \
	nAlphaAdjustMax      3 \
	wolfeEnergy          0.0001 \
	wolfeGradient        0.9 \
	fdTest               no
kpoint   0.000000000000   0.000000000000   0.000000000000  1.00000000000000
kpoint-folding 1 1 1 
latt-move-scale 1 1 1
latt-scale 1 1 1 
lattice Triclinic 32.1811 32.1811 37.7946 90 90 90
lattice-minimize  \
	dirUpdateScheme      L-BFGS \
	linminMethod         DirUpdateRecommended \
	nIterations          0 \
	history              15 \
	knormThreshold       0 \
	energyDiffThreshold  1e-06 \
	nEnergyDiff          2 \
	alphaTstart          1 \
	alphaTmin            1e-10 \
	updateTestStepSize   yes \
	alphaTreduceFactor   0.1 \
	alphaTincreaseFactor 3 \
	nAlphaAdjustMax      3 \
	wolfeEnergy          0.0001 \
	wolfeGradient        0.9 \
	fdTest               no
lcao-params -1 1e-06 0.01
pcm-variant GLSSA13
spintype no-spin
subspace-rotation-factor 1 yes
symmetries automatic
symmetry-threshold 0.0001



---------- Setting up symmetries ----------

Found 16 point-group symmetries of the bravais lattice
Found 1 space-group symmetries with basis
Applied RMS atom displacement 0 bohrs to make symmetries exact.

---------- Initializing the Grid ----------
R = 
[      32.1811            0            0  ]
[            0      32.1811            0  ]
[            0            0      37.7946  ]
unit cell volume = 39140.9
G =
[   0.195245          0          0  ]
[          0   0.195245          0  ]
[          0          0   0.166246  ]
Minimum fftbox size, Smin = [  148  148  172  ]
Chosen fftbox size, S = [  150  150  180  ]

---------- Initializing tighter grid for wavefunction operations ----------
R = 
[      32.1811            0            0  ]
[            0      32.1811            0  ]
[            0            0      37.7946  ]
unit cell volume = 39140.9
G =
[   0.195245          0          0  ]
[          0   0.195245          0  ]
[          0          0   0.166246  ]
Minimum fftbox size, Smin = [  132  132  156  ]
Chosen fftbox size, S = [  140  140  160  ]

---------- Exchange Correlation functional ----------
Initalized PBE GGA exchange.
Initalized PBE GGA correlation.

---------- Setting up pseudopotentials ----------
Width of ionic core gaussian charges (only for fluid interactions / plotting) set to 0

Reading pseudopotential file '/home/akim2/jdftx_install/build/pseudopotentials/GBRV/ni_pbe.uspp':
  Title: Ni.  Created by USPP 7.3.6 on 1-4-15
  Reference state energy: -170.398381.  18 valence electrons in orbitals:
    |300>  occupation: 2  eigenvalue: -4.804705
    |310>  occupation: 6  eigenvalue: -3.347751
    |320>  occupation: 8  eigenvalue: -1.042415
    |400>  occupation: 0  eigenvalue: -0.795539
    |410>  occupation: 0  eigenvalue: -0.551375
  lMax: 2  lLocal: 3  QijEcut: 6.5
  6 projectors sampled on a log grid with 611 points:
    l: 0  eig: -4.804708  rCut: 1.44
    l: 0  eig: -0.795541  rCut: 1.44
    l: 1  eig: -3.347753  rCut: 1.55
    l: 1  eig: 0.500000  rCut: 1.55
    l: 2  eig: -1.042418  rCut: 1.5
    l: 2  eig: -0.450000  rCut: 1.5
  Partial core density with radius 0.65
  Transforming core density to a uniform radial grid of dG=0.02 with 1283 points.
  Transforming local potential to a uniform radial grid of dG=0.02 with 1283 points.
  Transforming nonlocal projectors to a uniform radial grid of dG=0.02 with 432 points.
  Transforming density augmentations to a uniform radial grid of dG=0.02 with 1283 points.
  Transforming atomic orbitals to a uniform radial grid of dG=0.02 with 432 points.
  Core radius for overlap checks: 1.55 bohrs.

Reading pseudopotential file '/home/akim2/jdftx_install/build/pseudopotentials/GBRV/s_pbe.uspp':
  Title: S.  Created by USPP 7.3.6 on 1-4-15
  Reference state energy: -11.898476.  6 valence electrons in orbitals:
    |300>  occupation: 2  eigenvalue: -0.634167
    |310>  occupation: 4  eigenvalue: -0.257568
  lMax: 2  lLocal: 3  QijEcut: 6
  6 projectors sampled on a log grid with 635 points:
    l: 0  eig: -0.634161  rCut: 1.5
    l: 0  eig: 1.500000  rCut: 1.5
    l: 1  eig: -0.257567  rCut: 1.5
    l: 1  eig: 1.500000  rCut: 1.5
    l: 2  eig: -1.000000  rCut: 1.5
    l: 2  eig: 1.500000  rCut: 1.5
  Partial core density with radius 1.15
  Transforming core density to a uniform radial grid of dG=0.02 with 1283 points.
  Transforming local potential to a uniform radial grid of dG=0.02 with 1283 points.
  Transforming nonlocal projectors to a uniform radial grid of dG=0.02 with 432 points.
  Transforming density augmentations to a uniform radial grid of dG=0.02 with 1283 points.
  Transforming atomic orbitals to a uniform radial grid of dG=0.02 with 432 points.
  Core radius for overlap checks: 1.50 bohrs.

Reading pseudopotential file '/home/akim2/jdftx_install/build/pseudopotentials/GBRV/na_pbe.uspp':
  Title: Na.  Created by USPP 7.3.6 on 23-9-15
  Reference state energy: -47.625620.  9 valence electrons in orbitals:
    |200>  occupation: 2  eigenvalue: -2.085638
    |210>  occupation: 6  eigenvalue: -1.053708
    |300>  occupation: 1  eigenvalue: -0.100838
  lMax: 2  lLocal: 0  QijEcut: 6
  5 projectors sampled on a log grid with 657 points:
    l: 0  eig: -2.085640  rCut: 1.37
    l: 0  eig: -0.100839  rCut: 1.37
    l: 1  eig: -1.053708  rCut: 1.47
    l: 1  eig: 0.500000  rCut: 1.47
    l: 2  eig: 0.750000  rCut: 2
  Transforming local potential to a uniform radial grid of dG=0.02 with 1283 points.
  Transforming nonlocal projectors to a uniform radial grid of dG=0.02 with 432 points.
  Transforming density augmentations to a uniform radial grid of dG=0.02 with 1283 points.
  Transforming atomic orbitals to a uniform radial grid of dG=0.02 with 432 points.
  Core radius for overlap checks: 2.00 bohrs.

Initialized 3 species with 111 total atoms.

Folded 1 k-points by 1x1x1 to 1 k-points.

---------- Setting up k-points, bands, fillings ----------
No reducable k-points. 
Computing the number of bands and number of electrons
Calculating initial fillings.
nElectrons: 1104.000000   nBands: 770   nStates: 1

----- Setting up reduced wavefunction bases (one per k-point) -----
average nbasis = 167141.000 , ideal nbasis = 167213.066

---------- Setting up coulomb interaction ----------
Setting up double-sized grid for truncated Coulomb potentials:
R = 
[      32.1811            0            0  ]
[            0      32.1811            0  ]
[            0            0      75.5892  ]
unit cell volume = 78281.9
G =
[   0.195245          0          0  ]
[          0   0.195245          0  ]
[          0          0  0.0831228  ]
Chosen fftbox size, S = [  150  150  360  ]
Integer grid location selected as the embedding center:
   Grid: [  0  0  33  ]
   Lattice: [  0  0  0.185212  ]
   Cartesian: [  0  0  7  ]
Constructing Wigner-Seitz cell: 6 faces (6 quadrilaterals, 0 hexagons)
Range-separation parameter for embedded mesh potentials due to point charges: 0.584339 bohrs.
Initialized slab truncation along lattice direction 001

---------- Setting up 2D ewald sum ----------
Optimum gaussian width for ewald sums = 19.197881 bohr.
Real space sums over 225 unit cells with max indices [  7  7  0  ]
Reciprocal space sums over 81 terms with max indices [  4  4  0  ]

---------- Allocating electronic variables ----------
Initializing wave functions:  linear combination of atomic orbitals
Ni pseudo-atom occupations:   s ( 2 0 )  p ( 6 0 )  d ( 10 )
S pseudo-atom occupations:   s ( 2 )  p ( 4 )
Na pseudo-atom occupations:   s ( 2 1 )  p ( 6 )
	FillingsUpdate:  mu: -1.187650481  nElectrons: 1104.000000
LCAOMinimize: Iter:   0  F: -6289.8619904284123550  |grad|_K:  3.675e-02  alpha:  1.000e+00
	FillingsUpdate:  mu: +3.837743568  nElectrons: 1104.000000
LCAOMinimize: Iter:   1  F: -6472.8726457132434007  |grad|_K:  1.381e-01  alpha:  2.051e-01  linmin:  9.379e-02  cgtest: -6.544e-01  t[s]:     19.54
LCAOMinimize: 	Bad step direction: g.d > 0.
LCAOMinimize: 	Undoing step.
LCAOMinimize: 	Step failed: resetting search direction.
	FillingsUpdate:  mu: +3.837743568  nElectrons: 1104.000000
LCAOMinimize: Iter:   2  F: -6472.8726457132434007  |grad|_K:  1.381e-01  alpha:  0.000e+00
	FillingsUpdate:  mu: +1.938615243  nElectrons: 1104.000000
LCAOMinimize: Iter:   3  F: -6713.3014407132786801  |grad|_K:  1.216e-01  alpha:  6.526e-02  linmin:  1.835e-01  cgtest: -7.662e-01  t[s]:     29.94
LCAOMinimize: 	Bad step direction: g.d > 0.
LCAOMinimize: 	Undoing step.
LCAOMinimize: 	Step failed: resetting search direction.
	FillingsUpdate:  mu: +1.938615243  nElectrons: 1104.000000
LCAOMinimize: Iter:   4  F: -6713.3014407132786801  |grad|_K:  1.216e-01  alpha:  0.000e+00
	FillingsUpdate:  mu: +0.779800955  nElectrons: 1104.000000
LCAOMinimize: Iter:   5  F: -6941.5236031292697589  |grad|_K:  6.480e-02  alpha:  3.267e-02  linmin:  1.076e-01  cgtest: -7.431e-01  t[s]:     40.43
LCAOMinimize: 	Bad step direction: g.d > 0.
LCAOMinimize: 	Undoing step.
LCAOMinimize: 	Step failed: resetting search direction.
	FillingsUpdate:  mu: +0.779800955  nElectrons: 1104.000000
LCAOMinimize: Iter:   6  F: -6941.5236031292697589  |grad|_K:  6.480e-02  alpha:  0.000e+00
	FillingsUpdate:  mu: +0.044817916  nElectrons: 1104.000000
LCAOMinimize: Iter:   7  F: -6993.5558803744843317  |grad|_K:  4.714e-02  alpha:  2.659e-02  linmin:  1.671e-01  cgtest: -2.916e-01  t[s]:     50.93
	FillingsUpdate:  mu: +0.042677724  nElectrons: 1104.000000
LCAOMinimize: Iter:   8  F: -6993.5685005622317476  |grad|_K:  4.718e-02  alpha:  2.600e-04  linmin: -3.899e-03  cgtest:  9.999e-01  t[s]:     56.98
LCAOMinimize: 	Predicted alpha/alphaT>3.000000, increasing alphaT to 7.801008e-04.
LCAOMinimize: 	Predicted alpha/alphaT>3.000000, increasing alphaT to 2.340302e-03.
LCAOMinimize: 	Predicted alpha/alphaT>3.000000, increasing alphaT to 7.020907e-03.
	FillingsUpdate:  mu: -0.031923887  nElectrons: 1104.000000
LCAOMinimize: Iter:   9  F: -6999.8205956694928318  |grad|_K:  1.564e-02  alpha:  8.206e-03  linmin: -3.994e-01  cgtest:  8.811e-01  t[s]:     68.89
LCAOMinimize: Encountered beta<0, resetting CG.
LCAOMinimize: 	Predicted alpha/alphaT>3.000000, increasing alphaT to 2.461653e-02.
	FillingsUpdate:  mu: -0.012047366  nElectrons: 1104.000000
LCAOMinimize: Iter:  10  F: -7001.6935099311249360  |grad|_K:  9.989e-03  alpha:  2.580e-02  linmin:  1.322e-02  cgtest: -1.767e-01  t[s]:     76.55
	FillingsUpdate:  mu: +0.010743461  nElectrons: 1104.000000
LCAOMinimize: Iter:  11  F: -7002.5035004479532290  |grad|_K:  1.192e-02  alpha:  2.893e-02  linmin:  3.187e-02  cgtest:  4.473e-01  t[s]:     82.60
	FillingsUpdate:  mu: -0.022835485  nElectrons: 1104.000000
LCAOMinimize: Iter:  12  F: -7003.2435917015036466  |grad|_K:  7.730e-03  alpha:  1.774e-02  linmin: -8.075e-03  cgtest:  3.148e-01  t[s]:     88.68
	FillingsUpdate:  mu: -0.027478633  nElectrons: 1104.000000
LCAOMinimize: Iter:  13  F: -7003.6854685714388324  |grad|_K:  4.616e-03  alpha:  2.481e-02  linmin:  1.307e-02  cgtest: -1.668e-01  t[s]:     94.64
	FillingsUpdate:  mu: -0.072947401  nElectrons: 1104.000000
LCAOMinimize: Iter:  14  F: -7003.8213127271728808  |grad|_K:  3.480e-03  alpha:  2.215e-02  linmin:  3.743e-03  cgtest:  1.241e-01  t[s]:    100.77
	FillingsUpdate:  mu: -0.097713896  nElectrons: 1104.000000
LCAOMinimize: Iter:  15  F: -7003.9462365560111721  |grad|_K:  3.664e-03  alpha:  3.610e-02  linmin:  1.112e-02  cgtest: -4.214e-02  t[s]:    106.85
	FillingsUpdate:  mu: -0.095269202  nElectrons: 1104.000000
LCAOMinimize: Iter:  16  F: -7004.0257535663076851  |grad|_K:  2.709e-03  alpha:  2.097e-02  linmin: -1.085e-03  cgtest:  1.846e-01  t[s]:    112.98
	FillingsUpdate:  mu: -0.100705453  nElectrons: 1104.000000
LCAOMinimize: Iter:  17  F: -7004.0942721556948527  |grad|_K:  2.392e-03  alpha:  3.137e-02  linmin:  1.704e-03  cgtest: -5.720e-02  t[s]:    119.04
	FillingsUpdate:  mu: -0.103870687  nElectrons: 1104.000000
LCAOMinimize: Iter:  18  F: -7004.1284320402783123  |grad|_K:  1.589e-03  alpha:  1.957e-02  linmin: -1.719e-03  cgtest:  4.836e-02  t[s]:    124.99
	FillingsUpdate:  mu: -0.104399931  nElectrons: 1104.000000
LCAOMinimize: Iter:  19  F: -7004.1562335764065210  |grad|_K:  1.970e-03  alpha:  3.735e-02  linmin:  4.338e-03  cgtest:  7.997e-03  t[s]:    131.05
	FillingsUpdate:  mu: -0.116406458  nElectrons: 1104.000000
LCAOMinimize: Iter:  20  F: -7004.1873962075442250  |grad|_K:  1.756e-03  alpha:  2.780e-02  linmin:  1.098e-04  cgtest:  1.446e-01  t[s]:    137.16
	FillingsUpdate:  mu: -0.129229880  nElectrons: 1104.000000
LCAOMinimize: Iter:  21  F: -7004.2070869512708668  |grad|_K:  1.140e-03  alpha:  2.144e-02  linmin:  3.808e-04  cgtest: -3.510e-03  t[s]:    143.21
	FillingsUpdate:  mu: -0.129941125  nElectrons: 1104.000000
LCAOMinimize: Iter:  22  F: -7004.2153556979928908  |grad|_K:  6.279e-04  alpha:  2.143e-02  linmin:  1.018e-04  cgtest:  7.940e-03  t[s]:    149.19
	FillingsUpdate:  mu: -0.129599681  nElectrons: 1104.000000
LCAOMinimize: Iter:  23  F: -7004.2184203101214734  |grad|_K:  6.030e-04  alpha:  2.615e-02  linmin: -3.472e-04  cgtest:  1.228e-03  t[s]:    155.32
	FillingsUpdate:  mu: -0.128932711  nElectrons: 1104.000000
LCAOMinimize: Iter:  24  F: -7004.2216639835960450  |grad|_K:  4.691e-04  alpha:  2.995e-02  linmin: -3.067e-04  cgtest: -4.486e-03  t[s]:    161.51
	FillingsUpdate:  mu: -0.127683561  nElectrons: 1104.000000
LCAOMinimize: Iter:  25  F: -7004.2234620646477197  |grad|_K:  3.920e-04  alpha:  2.745e-02  linmin: -4.323e-04  cgtest:  1.956e-03  t[s]:    167.48
	FillingsUpdate:  mu: -0.129322217  nElectrons: 1104.000000
LCAOMinimize: Iter:  26  F: -7004.2247346156000276  |grad|_K:  3.079e-04  alpha:  2.778e-02  linmin:  7.900e-05  cgtest: -3.180e-03  t[s]:    173.47
	FillingsUpdate:  mu: -0.129849196  nElectrons: 1104.000000
LCAOMinimize: Iter:  27  F: -7004.2253991454308562  |grad|_K:  2.573e-04  alpha:  2.359e-02  linmin: -1.436e-05  cgtest:  5.257e-03  t[s]:    179.58
	FillingsUpdate:  mu: -0.128773177  nElectrons: 1104.000000
LCAOMinimize: Iter:  28  F: -7004.2264479440573268  |grad|_K:  3.418e-04  alpha:  5.327e-02  linmin: -5.312e-05  cgtest: -1.915e-03  t[s]:    185.67
	FillingsUpdate:  mu: -0.129682046  nElectrons: 1104.000000
LCAOMinimize: Iter:  29  F: -7004.2274700252019102  |grad|_K:  3.292e-04  alpha:  2.923e-02  linmin: -1.448e-04  cgtest:  6.412e-03  t[s]:    191.67
	FillingsUpdate:  mu: -0.129519981  nElectrons: 1104.000000
LCAOMinimize: Iter:  30  F: -7004.2284141222335165  |grad|_K:  1.834e-04  alpha:  2.924e-02  linmin:  1.815e-04  cgtest:  1.690e-03  t[s]:    197.68
LCAOMinimize: None of the convergence criteria satisfied after 30 iterations.


---- Citations for features of the code used in this run ----

   Software package:
      R. Sundararaman, K. Letchworth-Weaver, K.A. Schwarz, D. Gunceler, Y. Ozhabes and T.A. Arias, 'JDFTx: software for joint density-functional theory', SoftwareX 6, 278 (2017)

   gga-PBE exchange-correlation functional:
      J.P. Perdew, K. Burke and M. Ernzerhof, Phys. Rev. Lett. 77, 3865 (1996)

   Pseudopotentials:
      KF Garrity, JW Bennett, KM Rabe and D Vanderbilt, Comput. Mater. Sci. 81, 446 (2014)

   Truncated Coulomb potentials:
      R. Sundararaman and T.A. Arias, Phys. Rev. B 87, 165122 (2013)

   Total energy minimization with Auxiliary Hamiltonian:
      C. Freysoldt, S. Boeck, and J. Neugebauer, Phys. Rev. B 79, 241103(R) (2009)

This list may not be complete. Please suggest additional citations or
report any other bugs at https://github.com/shankar1729/jdftx/issues

Initialization completed successfully at t[s]:    199.27


-------- Electronic minimization -----------
	FillingsUpdate:  mu: -0.129519980  nElectrons: 1104.000000
ElecMinimize: Iter:   0  F: -7004.228414122253525  |grad|_K:  2.182e-04  alpha:  1.000e+00
	FillingsUpdate:  mu: -0.179367484  nElectrons: 1104.000000
	SubspaceRotationAdjust: set factor to 0.755
ElecMinimize: Iter:   1  F: -7005.996569386808005  |grad|_K:  2.722e-04  alpha:  2.800e-01  linmin: -1.328e-05  t[s]:    216.03
	FillingsUpdate:  mu: -0.095273492  nElectrons: 1104.000000
	SubspaceRotationAdjust: set factor to 0.425
ElecMinimize: Iter:   2  F: -7006.405381408731955  |grad|_K:  4.803e-04  alpha:  6.614e-02  linmin:  1.340e-04  t[s]:    226.50
	FillingsUpdate:  mu: -0.033628560  nElectrons: 1104.000000
	SubspaceRotationAdjust: set factor to 0.273
ElecMinimize: Iter:   3  F: -7007.234871200796988  |grad|_K:  3.177e-04  alpha:  4.353e-02  linmin: -1.687e-06  t[s]:    236.96
	FillingsUpdate:  mu: -0.072282811  nElectrons: 1104.000000
	SubspaceRotationAdjust: set factor to 0.228
ElecMinimize: Iter:   4  F: -7007.896621026019602  |grad|_K:  1.934e-04  alpha:  5.024e-02  linmin: -1.878e-05  t[s]:    247.42
	FillingsUpdate:  mu: -0.120945549  nElectrons: 1104.000000
	SubspaceRotationAdjust: set factor to 0.242
ElecMinimize: Iter:   5  F: -7008.327504814466920  |grad|_K:  1.269e-04  alpha:  8.565e-02  linmin: -1.106e-05  t[s]:    257.91
	FillingsUpdate:  mu: -0.123519766  nElectrons: 1104.000000
	SubspaceRotationAdjust: set factor to 0.241
ElecMinimize: Iter:   6  F: -7008.585621443293348  |grad|_K:  1.327e-04  alpha:  1.213e-01  linmin: -2.111e-05  t[s]:    268.42
	FillingsUpdate:  mu: -0.150511455  nElectrons: 1104.000000
	SubspaceRotationAdjust: set factor to 0.226
ElecMinimize: Iter:   7  F: -7008.945359511601964  |grad|_K:  1.155e-04  alpha:  1.540e-01  linmin:  4.327e-06  t[s]:    278.86
	FillingsUpdate:  mu: -0.176505646  nElectrons: 1104.000000
	SubspaceRotationAdjust: set factor to 0.275
ElecMinimize: Iter:   8  F: -7009.105808024133694  |grad|_K:  7.996e-05  alpha:  9.248e-02  linmin: -1.193e-06  t[s]:    289.32
	FillingsUpdate:  mu: -0.172184035  nElectrons: 1104.000000
	SubspaceRotationAdjust: set factor to 0.284
ElecMinimize: Iter:   9  F: -7009.198576721698373  |grad|_K:  6.947e-05  alpha:  1.125e-01  linmin:  9.890e-06  t[s]:    299.81
	FillingsUpdate:  mu: -0.158135361  nElectrons: 1104.000000
	SubspaceRotationAdjust: set factor to 0.231
ElecMinimize: Iter:  10  F: -7009.275641256153904  |grad|_K:  7.233e-05  alpha:  1.247e-01  linmin:  1.275e-05  t[s]:    310.29
	FillingsUpdate:  mu: -0.159178119  nElectrons: 1104.000000
	SubspaceRotationAdjust: set factor to 0.307
ElecMinimize: Iter:  11  F: -7009.337381661871405  |grad|_K:  4.616e-05  alpha:  9.158e-02  linmin:  1.899e-05  t[s]:    320.77
	FillingsUpdate:  mu: -0.158138170  nElectrons: 1104.000000
	SubspaceRotationAdjust: set factor to 0.241
ElecMinimize: Iter:  12  F: -7009.370511124581753  |grad|_K:  4.987e-05  alpha:  1.208e-01  linmin: -4.435e-07  t[s]:    331.21
	FillingsUpdate:  mu: -0.157062619  nElectrons: 1104.000000
	SubspaceRotationAdjust: set factor to 0.3
ElecMinimize: Iter:  13  F: -7009.405799567483882  |grad|_K:  4.087e-05  alpha:  1.102e-01  linmin: -8.080e-06  t[s]:    341.78
	FillingsUpdate:  mu: -0.159901702  nElectrons: 1104.000000
	SubspaceRotationAdjust: set factor to 0.31
ElecMinimize: Iter:  14  F: -7009.432488857293720  |grad|_K:  3.384e-05  alpha:  1.229e-01  linmin: -5.570e-06  t[s]:    352.24
	FillingsUpdate:  mu: -0.166823257  nElectrons: 1104.000000
	SubspaceRotationAdjust: set factor to 0.338
ElecMinimize: Iter:  15  F: -7009.445888274279241  |grad|_K:  2.621e-05  alpha:  9.018e-02  linmin:  5.338e-07  t[s]:    362.81
	FillingsUpdate:  mu: -0.171014775  nElectrons: 1104.000000
	SubspaceRotationAdjust: set factor to 0.355
ElecMinimize: Iter:  16  F: -7009.457607922307943  |grad|_K:  2.585e-05  alpha:  1.325e-01  linmin:  1.693e-06  t[s]:    377.47
	FillingsUpdate:  mu: -0.170597446  nElectrons: 1104.000000
	SubspaceRotationAdjust: set factor to 0.327
ElecMinimize: Iter:  17  F: -7009.467618271494757  |grad|_K:  2.758e-05  alpha:  1.165e-01  linmin: -1.770e-07  t[s]:    387.97
	FillingsUpdate:  mu: -0.170209351  nElectrons: 1104.000000
	SubspaceRotationAdjust: set factor to 0.408
ElecMinimize: Iter:  18  F: -7009.478314694694745  |grad|_K:  1.961e-05  alpha:  1.089e-01  linmin:  9.919e-07  t[s]:    398.48
	FillingsUpdate:  mu: -0.168399689  nElectrons: 1104.000000
	SubspaceRotationAdjust: set factor to 0.347
ElecMinimize: Iter:  19  F: -7009.482413246059878  |grad|_K:  1.615e-05  alpha:  8.281e-02  linmin: -3.717e-08  t[s]:    408.98
	FillingsUpdate:  mu: -0.166246010  nElectrons: 1104.000000
	SubspaceRotationAdjust: set factor to 0.34
ElecMinimize: Iter:  20  F: -7009.486538150737942  |grad|_K:  1.579e-05  alpha:  1.225e-01  linmin: -6.947e-07  t[s]:    419.60
	FillingsUpdate:  mu: -0.167752664  nElectrons: 1104.000000
	SubspaceRotationAdjust: set factor to 0.328
ElecMinimize: Iter:  21  F: -7009.490289526010201  |grad|_K:  1.428e-05  alpha:  1.163e-01  linmin:  7.162e-07  t[s]:    430.16
	FillingsUpdate:  mu: -0.169356468  nElectrons: 1104.000000
	SubspaceRotationAdjust: set factor to 0.315
ElecMinimize: Iter:  22  F: -7009.492553088228306  |grad|_K:  9.482e-06  alpha:  8.619e-02  linmin:  1.146e-07  t[s]:    440.63
	FillingsUpdate:  mu: -0.170402046  nElectrons: 1104.000000
	SubspaceRotationAdjust: set factor to 0.302
ElecMinimize: Iter:  23  F: -7009.494126197865626  |grad|_K:  9.631e-06  alpha:  1.357e-01  linmin:  1.077e-07  t[s]:    451.09
	FillingsUpdate:  mu: -0.171458008  nElectrons: 1104.000000
	SubspaceRotationAdjust: set factor to 0.289
ElecMinimize: Iter:  24  F: -7009.495295347878709  |grad|_K:  7.871e-06  alpha:  9.773e-02  linmin:  1.821e-07  t[s]:    461.64
	FillingsUpdate:  mu: -0.170859903  nElectrons: 1104.000000
	SubspaceRotationAdjust: set factor to 0.319
ElecMinimize: Iter:  25  F: -7009.496436456271113  |grad|_K:  6.455e-06  alpha:  1.428e-01  linmin: -3.546e-07  t[s]:    472.16
	FillingsUpdate:  mu: -0.170024032  nElectrons: 1104.000000
	SubspaceRotationAdjust: set factor to 0.28
ElecMinimize: Iter:  26  F: -7009.496902447686807  |grad|_K:  4.926e-06  alpha:  8.675e-02  linmin:  3.726e-07  t[s]:    482.61
	FillingsUpdate:  mu: -0.169783492  nElectrons: 1104.000000
	SubspaceRotationAdjust: set factor to 0.325
ElecMinimize: Iter:  27  F: -7009.497313033287355  |grad|_K:  4.160e-06  alpha:  1.313e-01  linmin:  4.131e-07  t[s]:    493.09
	FillingsUpdate:  mu: -0.169869101  nElectrons: 1104.000000
	SubspaceRotationAdjust: set factor to 0.332
ElecMinimize: Iter:  28  F: -7009.497611713693914  |grad|_K:  4.049e-06  alpha:  1.339e-01  linmin:  1.118e-06  t[s]:    503.55
	FillingsUpdate:  mu: -0.169561524  nElectrons: 1104.000000
	SubspaceRotationAdjust: set factor to 0.3
ElecMinimize: Iter:  29  F: -7009.497831193537422  |grad|_K:  3.473e-06  alpha:  1.039e-01  linmin:  6.608e-07  t[s]:    513.97
	FillingsUpdate:  mu: -0.169513457  nElectrons: 1104.000000
	SubspaceRotationAdjust: set factor to 0.316
ElecMinimize: Iter:  30  F: -7009.498038103041836  |grad|_K:  2.861e-06  alpha:  1.331e-01  linmin:  1.799e-06  t[s]:    524.44
	FillingsUpdate:  mu: -0.169639599  nElectrons: 1104.000000
	SubspaceRotationAdjust: set factor to 0.314
ElecMinimize: Iter:  31  F: -7009.498156094190563  |grad|_K:  2.398e-06  alpha:  1.119e-01  linmin:  1.331e-06  t[s]:    534.93
	FillingsUpdate:  mu: -0.169577002  nElectrons: 1104.000000
	SubspaceRotationAdjust: set factor to 0.321
ElecMinimize: Iter:  32  F: -7009.498232249386092  |grad|_K:  1.920e-06  alpha:  1.028e-01  linmin:  6.505e-07  t[s]:    545.46
	FillingsUpdate:  mu: -0.169610283  nElectrons: 1104.000000
	SubspaceRotationAdjust: set factor to 0.324
ElecMinimize: Iter:  33  F: -7009.498313131615760  |grad|_K:  2.113e-06  alpha:  1.703e-01  linmin:  8.853e-07  t[s]:    555.96
	FillingsUpdate:  mu: -0.169687424  nElectrons: 1104.000000
	SubspaceRotationAdjust: set factor to 0.34
ElecMinimize: Iter:  34  F: -7009.498373518601511  |grad|_K:  1.720e-06  alpha:  1.050e-01  linmin:  3.159e-07  t[s]:    566.45
	FillingsUpdate:  mu: -0.169566847  nElectrons: 1104.000000
	SubspaceRotationAdjust: set factor to 0.338
ElecMinimize: Iter:  35  F: -7009.498419461771846  |grad|_K:  1.485e-06  alpha:  1.205e-01  linmin:  2.874e-07  t[s]:    576.89
	FillingsUpdate:  mu: -0.169547541  nElectrons: 1104.000000
	SubspaceRotationAdjust: set factor to 0.32
ElecMinimize: Iter:  36  F: -7009.498452973763960  |grad|_K:  1.431e-06  alpha:  1.179e-01  linmin:  1.897e-07  t[s]:    587.38
	FillingsUpdate:  mu: -0.169572027  nElectrons: 1104.000000
	SubspaceRotationAdjust: set factor to 0.355
ElecMinimize: Iter:  37  F: -7009.498484691823251  |grad|_K:  1.114e-06  alpha:  1.201e-01  linmin:  1.365e-07  t[s]:    597.81
	FillingsUpdate:  mu: -0.169479774  nElectrons: 1104.000000
	SubspaceRotationAdjust: set factor to 0.315
ElecMinimize: Iter:  38  F: -7009.498501806060631  |grad|_K:  9.967e-07  alpha:  1.069e-01  linmin:  3.259e-08  t[s]:    609.19
	FillingsUpdate:  mu: -0.169453623  nElectrons: 1104.000000
	SubspaceRotationAdjust: set factor to 0.299
ElecMinimize: Iter:  39  F: -7009.498516055651635  |grad|_K:  8.315e-07  alpha:  1.112e-01  linmin:  6.337e-08  t[s]:    619.53
	FillingsUpdate:  mu: -0.169487560  nElectrons: 1104.000000
	SubspaceRotationAdjust: set factor to 0.323
ElecMinimize: Iter:  40  F: -7009.498529514942675  |grad|_K:  7.774e-07  alpha:  1.509e-01  linmin:  6.278e-08  t[s]:    629.95
	FillingsUpdate:  mu: -0.169496977  nElectrons: 1104.000000
	SubspaceRotationAdjust: set factor to 0.271
ElecMinimize: Iter:  41  F: -7009.498537511605718  |grad|_K:  6.281e-07  alpha:  1.026e-01  linmin:  1.621e-08  t[s]:    640.36
	FillingsUpdate:  mu: -0.169569119  nElectrons: 1104.000000
	SubspaceRotationAdjust: set factor to 0.292
ElecMinimize: Iter:  42  F: -7009.498544029448567  |grad|_K:  5.030e-07  alpha:  1.281e-01  linmin: -6.500e-09  t[s]:    650.81
	FillingsUpdate:  mu: -0.169586018  nElectrons: 1104.000000
	SubspaceRotationAdjust: set factor to 0.296
ElecMinimize: Iter:  43  F: -7009.498548861805830  |grad|_K:  4.474e-07  alpha:  1.481e-01  linmin:  1.974e-08  t[s]:    661.30
	FillingsUpdate:  mu: -0.169527349  nElectrons: 1104.000000
	SubspaceRotationAdjust: set factor to 0.283
ElecMinimize: Iter:  44  F: -7009.498551499947098  |grad|_K:  3.342e-07  alpha:  1.022e-01  linmin:  3.873e-08  t[s]:    671.92
	FillingsUpdate:  mu: -0.169505701  nElectrons: 1104.000000
	SubspaceRotationAdjust: set factor to 0.273
ElecMinimize: Iter:  45  F: -7009.498553651812472  |grad|_K:  3.174e-07  alpha:  1.494e-01  linmin:  9.585e-08  t[s]:    682.62
	FillingsUpdate:  mu: -0.169549669  nElectrons: 1104.000000
	SubspaceRotationAdjust: set factor to 0.281
ElecMinimize: Iter:  46  F: -7009.498555777438924  |grad|_K:  2.950e-07  alpha:  1.637e-01  linmin:  1.515e-07  t[s]:    693.12
	FillingsUpdate:  mu: -0.169572807  nElectrons: 1104.000000
	SubspaceRotationAdjust: set factor to 0.269
ElecMinimize: Iter:  47  F: -7009.498556922974785  |grad|_K:  2.114e-07  alpha:  1.021e-01  linmin:  1.059e-07  t[s]:    703.54
	FillingsUpdate:  mu: -0.169599404  nElectrons: 1104.000000
	SubspaceRotationAdjust: set factor to 0.306
ElecMinimize: Iter:  48  F: -7009.498557832633196  |grad|_K:  1.860e-07  alpha:  1.580e-01  linmin:  1.180e-07  t[s]:    714.01
	FillingsUpdate:  mu: -0.169596604  nElectrons: 1104.000000
	SubspaceRotationAdjust: set factor to 0.296
ElecMinimize: Iter:  49  F: -7009.498558497572049  |grad|_K:  1.918e-07  alpha:  1.491e-01  linmin:  5.667e-08  t[s]:    724.47
	FillingsUpdate:  mu: -0.169562951  nElectrons: 1104.000000
	SubspaceRotationAdjust: set factor to 0.311
ElecMinimize: Iter:  50  F: -7009.498559052522069  |grad|_K:  1.417e-07  alpha:  1.169e-01  linmin:  8.515e-08  t[s]:    734.91
	FillingsUpdate:  mu: -0.169555937  nElectrons: 1104.000000
	SubspaceRotationAdjust: set factor to 0.339
ElecMinimize: Iter:  51  F: -7009.498559465435392  |grad|_K:  1.370e-07  alpha:  1.594e-01  linmin: -5.860e-08  t[s]:    745.33
	FillingsUpdate:  mu: -0.169565917  nElectrons: 1104.000000
	SubspaceRotationAdjust: set factor to 0.324
ElecMinimize: Iter:  52  F: -7009.498559762609148  |grad|_K:  1.190e-07  alpha:  1.227e-01  linmin:  3.848e-08  t[s]:    755.80
	FillingsUpdate:  mu: -0.169568181  nElectrons: 1104.000000
	SubspaceRotationAdjust: set factor to 0.304
ElecMinimize: Iter:  53  F: -7009.498560000577527  |grad|_K:  1.106e-07  alpha:  1.304e-01  linmin:  9.637e-08  t[s]:    766.36
	FillingsUpdate:  mu: -0.169575393  nElectrons: 1104.000000
	SubspaceRotationAdjust: set factor to 0.32
ElecMinimize: Iter:  54  F: -7009.498560197901497  |grad|_K:  9.151e-08  alpha:  1.252e-01  linmin:  4.341e-08  t[s]:    776.89
	FillingsUpdate:  mu: -0.169573666  nElectrons: 1104.000000
	SubspaceRotationAdjust: set factor to 0.303
ElecMinimize: Iter:  55  F: -7009.498560356397320  |grad|_K:  8.797e-08  alpha:  1.467e-01  linmin: -1.129e-07  t[s]:    787.34
	FillingsUpdate:  mu: -0.169569435  nElectrons: 1104.000000
	SubspaceRotationAdjust: set factor to 0.307
ElecMinimize: Iter:  56  F: -7009.498560479059961  |grad|_K:  6.717e-08  alpha:  1.224e-01  linmin:  7.048e-08  t[s]:    797.81
	FillingsUpdate:  mu: -0.169572388  nElectrons: 1104.000000
	SubspaceRotationAdjust: set factor to 0.278
ElecMinimize: Iter:  57  F: -7009.498560555300173  |grad|_K:  6.209e-08  alpha:  1.304e-01  linmin: -3.394e-07  t[s]:    808.27
	FillingsUpdate:  mu: -0.169568669  nElectrons: 1104.000000
	SubspaceRotationAdjust: set factor to 0.289
ElecMinimize: Iter:  58  F: -7009.498560620399076  |grad|_K:  5.046e-08  alpha:  1.295e-01  linmin: -1.044e-07  t[s]:    818.77
	FillingsUpdate:  mu: -0.169564578  nElectrons: 1104.000000
	SubspaceRotationAdjust: set factor to 0.282
ElecMinimize: Iter:  59  F: -7009.498560670898769  |grad|_K:  4.396e-08  alpha:  1.523e-01  linmin: -3.101e-07  t[s]:    829.23
	FillingsUpdate:  mu: -0.169565961  nElectrons: 1104.000000
	SubspaceRotationAdjust: set factor to 0.275
ElecMinimize: Iter:  60  F: -7009.498560705328600  |grad|_K:  3.951e-08  alpha:  1.372e-01  linmin:  3.581e-08  t[s]:    839.85
	FillingsUpdate:  mu: -0.169565240  nElectrons: 1104.000000
	SubspaceRotationAdjust: set factor to 0.274
ElecMinimize: Iter:  61  F: -7009.498560729347446  |grad|_K:  3.054e-08  alpha:  1.199e-01  linmin: -3.664e-08  t[s]:    850.32
	FillingsUpdate:  mu: -0.169566828  nElectrons: 1104.000000
	SubspaceRotationAdjust: set factor to 0.275
ElecMinimize: Iter:  62  F: -7009.498560749943863  |grad|_K:  2.753e-08  alpha:  1.729e-01  linmin:  5.800e-07  t[s]:    860.74
	FillingsUpdate:  mu: -0.169568827  nElectrons: 1104.000000
	SubspaceRotationAdjust: set factor to 0.283
ElecMinimize: Iter:  63  F: -7009.498560761720910  |grad|_K:  2.365e-08  alpha:  1.248e-01  linmin:  3.927e-09  t[s]:    871.27
	FillingsUpdate:  mu: -0.169567326  nElectrons: 1104.000000
	SubspaceRotationAdjust: set factor to 0.27
ElecMinimize: Iter:  64  F: -7009.498560771119628  |grad|_K:  1.976e-08  alpha:  1.306e-01  linmin: -4.907e-07  t[s]:    881.74
	FillingsUpdate:  mu: -0.169566137  nElectrons: 1104.000000
	SubspaceRotationAdjust: set factor to 0.27
ElecMinimize: Iter:  65  F: -7009.498560780539265  |grad|_K:  1.936e-08  alpha:  1.807e-01  linmin:  3.478e-07  t[s]:    892.25
ElecMinimize: Converged (|Delta F|<1.000000e-08 for 2 iters).
Setting wave functions to eigenvectors of Hamiltonian

# Ionic positions in cartesian coordinates:
ion Ni  32.181130469222218  -0.000028463333331   0.611327655000000 0
ion Ni   5.363545148055554  -0.000028463333331   5.974853827499991 0
ion Ni  32.181130469222218  -5.363543250499998   5.974853827499991 0
ion Ni   5.363545148055554  -5.363543250499998   0.611327655000000 0
ion Ni  32.181130469222218 -10.727058037666666   0.611327655000000 0
ion Ni  32.181130469222218 -21.454087611999999   0.611327655000000 0
ion Ni   5.363545148055554 -21.454087611999999   5.974853827499991 0
ion Ni   5.363545148055554 -10.727058037666666   5.974853827499991 0
ion Ni  32.181130469222218 -16.090572824833334   5.974853827499991 0
ion Ni  32.181130469222218 -26.817602399166642   5.974853827499991 0
ion Ni   5.363545148055554 -26.817602399166642   0.611327655000000 0
ion Ni   5.363545148055554 -16.090572824833334   0.611327655000000 0
ion Ni  10.727071320555540  -0.000028463333331   0.611327655000000 0
ion Ni  21.454100894888885  -0.000028463333331   0.611327655000000 0
ion Ni  21.454100894888885  -5.363543250499998   5.974853827499991 0
ion Ni  10.727071320555540  -5.363543250499998   5.974853827499991 0
ion Ni  16.090574722388887  -5.363543250499998   0.611327655000000 0
ion Ni  26.817604296722198  -5.363543250499998   0.611327655000000 0
ion Ni  26.817604296722198  -0.000028463333331   5.974853827499991 0
ion Ni  16.090574722388887  -0.000028463333331   5.974853827499991 0
ion Ni  10.727071320555540 -10.727058037666666   0.611327655000000 0
ion Ni  21.454100894888885 -21.454087611999999   0.611327655000000 0
ion Ni  26.817604296722198 -21.454087611999999   5.974853827499991 0
ion Ni  16.090574722388887 -10.727058037666666   5.974853827499991 0
ion Ni  21.454100894888885 -16.090572824833334   5.974853827499991 0
ion Ni  10.727071320555540 -26.817602399166642   5.974853827499991 0
ion Ni  16.090574722388887 -26.817602399166642   0.611327655000000 0
ion Ni  26.817604296722198 -16.090572824833334   0.611327655000000 0
ion Ni  10.727071320555540 -21.454087611999999   0.611327655000000 0
ion Ni  21.454100894888885 -10.727058037666666   0.611327655000000 0
ion Ni  26.817604296722198 -10.727058037666666   5.974853827499991 0
ion Ni  16.090574722388887 -21.454087611999999   5.974853827499991 0
ion Ni  21.454100894888885 -26.817602399166642   5.974853827499991 0
ion Ni  10.727071320555540 -16.090572824833334   5.974853827499991 0
ion Ni  16.090574722388887 -16.090572824833334   0.611327655000000 0
ion Ni  26.817604296722198 -26.817602399166642   0.611327655000000 0
ion S   4.232269668888879  -4.232271970733331   7.106125994099993 0
ion S  27.948891161222196 -27.948885064266644   4.843581660899996 0
ion S   1.131317225388885 -27.948885064266644   1.742599821599998 0
ion S   9.595784456055540  -4.232271970733331  10.207107833399990 0
ion S  27.948891161222196  -9.595786757899997  10.207107833399990 0
ion S   4.232269668888879  -1.131311128433331   1.742599821599998 0
ion S   9.595784456055540  -1.131311128433331   4.843581660899996 0
ion S   1.131317225388885  -9.595786757899997   7.106125994099993 0
ion S   4.232269668888879 -14.959301545066653   7.106125994099993 0
ion S  27.948891161222196 -17.221855489933308   4.843581660899996 0
ion S   1.131317225388885 -17.221855489933308   1.742599821599998 0
ion S   9.595784456055540 -14.959301545066653  10.207107833399990 0
ion S  27.948891161222196 -20.322816332233330  10.207107833399990 0
ion S   4.232269668888879 -22.585370277100001   1.742599821599998 0
ion S   9.595784456055540 -22.585370277100001   4.843581660899996 0
ion S   1.131317225388885 -20.322816332233330   7.106125994099993 0
ion S  14.959299243222208  -4.232271970733330   7.106125994099993 0
ion S  17.221861586888888 -27.948885064266644   4.843581660899996 0
ion S  17.221861586888888  -9.595786757899997  10.207107833399990 0
ion S  14.959299243222208  -1.131311128433331   1.742599821599998 0
ion S  20.322814030388887  -1.131311128433331   4.843581660899996 0
ion S  22.585376374055553  -9.595786757899997   7.106125994099993 0
ion S  22.585376374055553 -27.948885064266644   1.742599821599998 0
ion S  20.322814030388887  -4.232271970733330  10.207107833399990 0
ion S   4.232269668888879 -25.686331119399977   7.106125994099993 0
ion S  27.948891161222196  -6.494825915599992   4.843581660899996 0
ion S   1.131317225388885  -6.494825915599992   1.742599821599998 0
ion S   9.595784456055540 -25.686331119399977  10.207107833399990 0
ion S  27.948891161222196 -31.049845906566667  10.207107833399990 0
ion S   4.232269668888879 -11.858340702766654   1.742599821599998 0
ion S   9.595784456055540 -11.858340702766654   4.843581660899996 0
ion S   1.131317225388885 -31.049845906566667   7.106125994099993 0
ion S  25.686328817555530  -4.232271970733330   7.106125994099993 0
ion S   6.494832012555547 -27.948885064266644   4.843581660899996 0
ion S   6.494832012555547  -9.595786757899997  10.207107833399990 0
ion S  25.686328817555530  -1.131311128433331   1.742599821599998 0
ion S  31.049843604722220  -1.131311128433331   4.843581660899996 0
ion S  11.858346799722209  -9.595786757899997   7.106125994099993 0
ion S  11.858346799722209 -27.948885064266644   1.742599821599998 0
ion S  31.049843604722220  -4.232271970733330  10.207107833399990 0
ion S  14.959299243222208 -14.959301545066653   7.106125994099993 0
ion S  17.221861586888888 -17.221855489933308   4.843581660899996 0
ion S  22.585376374055553 -17.221855489933308   1.742599821599998 0
ion S  20.322814030388887 -14.959301545066653  10.207107833399990 0
ion S  17.221861586888888 -20.322816332233330  10.207107833399990 0
ion S  14.959299243222208 -22.585370277100001   1.742599821599998 0
ion S  20.322814030388887 -22.585370277100001   4.843581660899996 0
ion S  22.585376374055553 -20.322816332233330   7.106125994099993 0
ion S  14.959299243222208 -25.686331119399977   7.106125994099993 0
ion S  17.221861586888888  -6.494825915599992   4.843581660899996 0
ion S  22.585376374055553  -6.494825915599992   1.742599821599998 0
ion S  20.322814030388887 -25.686331119399977  10.207107833399990 0
ion S  17.221861586888888 -31.049845906566667  10.207107833399990 0
ion S  14.959299243222208 -11.858340702766654   1.742599821599998 0
ion S  20.322814030388887 -11.858340702766654   4.843581660899996 0
ion S  22.585376374055553 -31.049845906566667   7.106125994099993 0
ion S  25.686328817555530 -14.959301545066653   7.106125994099993 0
ion S   6.494832012555547 -17.221855489933308   4.843581660899996 0
ion S  11.858346799722209 -17.221855489933308   1.742599821599998 0
ion S  31.049843604722220 -14.959301545066653  10.207107833399990 0
ion S   6.494832012555547 -20.322816332233330  10.207107833399990 0
ion S  25.686328817555530 -22.585370277100001   1.742599821599998 0
ion S  31.049843604722220 -22.585370277100001   4.843581660899996 0
ion S  11.858346799722209 -20.322816332233330   7.106125994099993 0
ion S  25.686328817555530 -25.686331119399977   7.106125994099993 0
ion S   6.494832012555547  -6.494825915599992   4.843581660899996 0
ion S  11.858346799722209  -6.494825915599992   1.742599821599998 0
ion S  31.049843604722220 -25.686331119399977  10.207107833399990 0
ion S   6.494832012555547 -31.049845906566667  10.207107833399990 0
ion S  25.686328817555530 -11.858340702766654   1.742599821599998 0
ion S  31.049843604722220 -11.858340702766654   4.843581660899996 0
ion S  11.858346799722209 -31.049845906566667   7.106125994099993 0
ion S  16.581416987699999 -19.168835303699996  14.816271524099998 1
ion Na  13.522227577199999 -15.942348096300000  15.387360613999999 1
ion Na  20.978667519299993 -17.753162971499997  14.900426563499996 1

# Forces in Cartesian coordinates:
force Ni   0.023481982476340   0.011608483141069   0.039135173006012 0
force Ni  -0.001769443174002   0.000594056683068   0.008923678765472 0
force Ni   0.001744561165262   0.000570878734600   0.008941276941570 0
force Ni  -0.023482207726586   0.011614080154393   0.039125132658687 0
force Ni   0.023483569120246   0.011616711862533   0.039147128270059 0
force Ni   0.023518862539251   0.011627138137619   0.039140322804249 0
force Ni  -0.001736746913673   0.000524481420820   0.008801240644413 0
force Ni  -0.001609622817400   0.000325459247781   0.008945277780918 0
force Ni   0.001737283988401   0.000509015654726   0.008888770501070 0
force Ni   0.001804046217335   0.000537338683268   0.008903783129680 0
force Ni  -0.023476536602079   0.011613180210686   0.039104819364974 0
force Ni  -0.023464650218899   0.011642990032528   0.039102763802465 0
force Ni   0.023487059257077   0.011624749573653   0.039145189002375 0
force Ni   0.023488927418429   0.011593364364265   0.039167051062393 0
force Ni   0.001756764940564   0.000458543191748   0.008900131235740 0
force Ni   0.001767887394624   0.000572303116391   0.008858715535155 0
force Ni  -0.023532968841434   0.011611993423618   0.039164077368500 0
force Ni  -0.023503506857425   0.011614737651890   0.039135233555073 0
force Ni  -0.001772069633316   0.000594850188858   0.008922913029758 0
force Ni  -0.001804060774231   0.000672004004073   0.008927184916618 0
force Ni   0.023481376521594   0.011575110237787   0.039191867174161 0
force Ni   0.023235286878690   0.011952764898451   0.038652810229886 0
force Ni  -0.001768110318923   0.000356632262921   0.008735700288948 0
force Ni  -0.001734162180813   0.000100272911653   0.008778692080049 0
force Ni   0.003405005529057  -0.000507411370976   0.007459989150124 0
force Ni   0.001750664130322   0.000659512182566   0.008792982259350 0
force Ni  -0.023724814186107   0.012221457535072   0.038666840241684 0
force Ni  -0.023502249563538   0.011603691491301   0.039101035337925 0
force Ni   0.024150491641994   0.011503507158387   0.038767173035263 0
force Ni   0.023480068436552   0.011570699950131   0.039165369222430 0
force Ni  -0.001830024513329   0.000566093832709   0.008864780993270 0
force Ni  -0.007464362953162  -0.001392078469822   0.000910440525846 0
force Ni   0.002145263072152  -0.000082601248601   0.008897882450231 0
force Ni   0.003309175968681  -0.000360243680670   0.007868851702881 0
force Ni  -0.023669435523324   0.011365320026767   0.038715622064231 0
force Ni  -0.023459195435783   0.011561677238217   0.039107141458130 0
force S  -0.004553354006028   0.004155714276932   0.003730659134393 0
force S   0.003280564168746  -0.000972799992680  -0.011516118265809 0
force S  -0.002552825916109  -0.006962052125067  -0.019703203611086 0
force S  -0.003842472053571  -0.008489971790812  -0.020903394845594 0
force S   0.003733443238562  -0.008504471590951  -0.020766960834640 0
force S   0.002548237803440  -0.006949590893467  -0.019703766088847 0
force S  -0.003220818566310  -0.000933704712881  -0.011489333709252 0
force S   0.004537292875359   0.004146300822209   0.003684922534841 0
force S  -0.004811183690453   0.003804272166068   0.003101303784267 0
force S   0.003410166080388  -0.000984886624136  -0.011647085786115 0
force S  -0.002635432220463  -0.006981313553809  -0.019743467025728 0
force S  -0.001321394586092  -0.008378390620768  -0.014016041105656 0
force S   0.002899827994369  -0.007956564128844  -0.019497449428371 0
force S   0.002578810727114  -0.006978176220819  -0.019709725920280 0
force S  -0.002983146998339  -0.000963110539930  -0.011262701458364 0
force S   0.004638724271324   0.004007414392360   0.003485599143903 0
force S  -0.004453522329976   0.004199034481330   0.003722179774358 0
force S   0.003442660644000  -0.000904547506319  -0.011236951405313 0
force S   0.002527503182145  -0.007521192950362  -0.019416770766373 0
force S   0.002590887153288  -0.006918473301128  -0.019711345557529 0
force S  -0.003178194050260  -0.000956966344501  -0.011440732495991 0
force S   0.004488704392566   0.004170456736519   0.003390995776226 0
force S  -0.002560689926174  -0.006830274690419  -0.019670643333841 0
force S  -0.003702284700732  -0.008098693070863  -0.020917000384447 0
force S  -0.004545838980876   0.004101853225893   0.003740392175569 0
force S   0.003235310078246  -0.000903389925092  -0.011498367514556 0
force S  -0.002542952504521  -0.006943344206082  -0.019716738844453 0
force S  -0.003861117403577  -0.008438960890680  -0.020998145617237 0
force S   0.003913213135949  -0.008481497247443  -0.021057766838551 0
force S   0.002571739433146  -0.006935661015275  -0.019675944896665 0
force S  -0.003413264277659  -0.000685902244238  -0.011983447886303 0
force S   0.004542853819076   0.004150417464416   0.003762360311913 0
force S  -0.004537347201717   0.004149857750667   0.003761792647505 0
force S   0.003197289868860  -0.000962341174584  -0.011430753256040 0
force S   0.003476854709244  -0.007561028725135  -0.020531195144359 0
force S   0.002578231528921  -0.006974495191104  -0.019691284834706 0
force S  -0.003215923201793  -0.000943008665768  -0.011450549648895 0
force S   0.004591504155615   0.004299349800702   0.003497659474338 0
force S  -0.002583765468985  -0.006813037762879  -0.019546776040043 0
force S  -0.003855929892356  -0.008376126456927  -0.021066888786978 0
force S  -0.005223917920091   0.004784771155143   0.002628639585475 0
force S   0.003252962972161  -0.002449805855705  -0.010044778300062 0
force S  -0.002594167434363  -0.007039391373306  -0.019686772680422 0
force S   0.000042178180024  -0.004874721343478  -0.015991791813887 0
force S   0.007250343621434   0.002928211143652   0.022251201013656 0
force S   0.001178113287354  -0.008870216701233  -0.023852460535178 0
force S  -0.005657877187422  -0.000481067149255  -0.008837497382928 0
force S   0.005439588758610   0.004239879520048   0.002747863115783 0
force S  -0.004302001618851   0.004450376157955   0.003735122400320 0
force S   0.003192777660994  -0.000925127847334  -0.011496312327716 0
force S  -0.002450027222208  -0.006868773603171  -0.019722876675629 0
force S  -0.002523466774907  -0.010489205042954  -0.021772529228453 0
force S   0.003812495195136  -0.008534299285884  -0.021106054739586 0
force S   0.002563534858625  -0.006896194980381  -0.019723857325537 0
force S  -0.003118014043473  -0.000432973273888  -0.011919833111237 0
force S   0.004486513833188   0.004142680498420   0.003743885611504 0
force S  -0.004697051477412   0.004312883656039   0.003337229956369 0
force S   0.002858277312432  -0.000605617199965  -0.011202829399225 0
force S  -0.002711673931003  -0.006990915419844  -0.019608359663110 0
force S  -0.003744949787133  -0.008230205075174  -0.020629026350054 0
force S   0.003493123288900  -0.008920518150013  -0.020533023776954 0
force S   0.002555724203637  -0.006963467046770  -0.019637497770191 0
force S  -0.003049746034968  -0.000867839424806  -0.011339618674802 0
force S   0.003868447395723   0.004143356413413   0.002320174063239 0
force S  -0.004603159984848   0.004205483135503   0.003652041409094 0
force S   0.003195043559960  -0.000865377836073  -0.011508802605735 0
force S  -0.002560132394601  -0.006893687453056  -0.019721404173492 0
force S  -0.003733681559282  -0.008809584149980  -0.021022573743627 0
force S   0.003867712879205  -0.008451155243164  -0.021094568348054 0
force S   0.002585204882686  -0.006955636445099  -0.019729106965460 0
force S  -0.003246754571161  -0.000825725763859  -0.011481302673535 0
force S   0.004557292669530   0.004130532323423   0.003735832092964 0
force S   0.002184754828124  -0.031179406895787  -0.026207059118204 1
force Na  -0.020996919662715   0.017618854388322  -0.007064292585885 1
force Na   0.016773764432683   0.004271934783516  -0.008045496422291 1

# Energy components:
   Eewald =   -18120.5789394894818543
       EH =   -11998.3826198289589229
     Eloc =    21891.7906268074657419
      Enl =      907.3351458619052892
      Exc =     -957.5102572894811601
 Exc_core =      143.4819610807802803
       KE =     1125.3970339844706814
-------------------------------------
     Etot =    -7008.4670488733017919
       TS =        1.0315119072377545
-------------------------------------
        F =    -7009.4985607805392647

IonicMinimize: Iter:   0  F: -7009.498560780539265  |grad|_K:  1.773e-02  alpha:  1.000e+00

#--- Lowdin population analysis ---
# oxidation-state Ni -0.002 -0.448 -0.448 -0.001 -0.002 -0.002 -0.447 -0.448 -0.447 -0.448 -0.001 -0.002 -0.002 -0.002 -0.448 -0.448 -0.002 -0.001 -0.448 -0.449 -0.002 -0.002 -0.447 -0.447 -0.444 -0.448 -0.001 -0.002 -0.002 -0.002 -0.448 -0.449 -0.448 -0.444 -0.000 -0.001
# oxidation-state S +0.317 +0.445 +0.085 -0.039 -0.047 +0.085 +0.445 +0.317 +0.315 +0.444 +0.085 -0.159 -0.086 +0.085 +0.446 +0.316 +0.316 +0.445 -0.085 +0.085 +0.445 +0.317 +0.085 -0.038 +0.317 +0.445 +0.085 -0.036 -0.032 +0.085 +0.443 +0.317 +0.317 +0.445 -0.049 +0.085 +0.445 +0.313 +0.086 -0.032 +0.301 +0.435 +0.086 -0.208 +0.038 +0.080 +0.440 +0.296 +0.313 +0.445 +0.085 -0.059 -0.032 +0.085 +0.443 +0.317 +0.311 +0.444 +0.087 -0.049 -0.052 +0.084 +0.444 +0.306 +0.315 +0.445 +0.085 -0.036 -0.031 +0.085 +0.444 +0.317 -0.638
# oxidation-state Na +0.791 +0.779


-------- Electronic minimization -----------
	FillingsUpdate:  mu: -0.170873646  nElectrons: 1104.000000
ElecMinimize: Iter:   0  F: -7009.474551780178444  |grad|_K:  2.529e-05  alpha:  1.000e+00
	FillingsUpdate:  mu: -0.169057627  nElectrons: 1104.000000
	SubspaceRotationAdjust: set factor to 0.253
ElecMinimize: Iter:   1  F: -7009.498676859685474  |grad|_K:  7.085e-06  alpha:  2.935e-01  linmin:  3.540e-04  t[s]:    914.60
	FillingsUpdate:  mu: -0.169907943  nElectrons: 1104.000000
	SubspaceRotationAdjust: set factor to 0.167
ElecMinimize: Iter:   2  F: -7009.499403557303594  |grad|_K:  6.544e-06  alpha:  1.124e-01  linmin: -1.616e-05  t[s]:    925.05
	FillingsUpdate:  mu: -0.169723568  nElectrons: 1104.000000
	SubspaceRotationAdjust: set factor to 0.188
ElecMinimize: Iter:   3  F: -7009.500706206737050  |grad|_K:  3.176e-06  alpha:  2.356e-01  linmin:  7.330e-06  t[s]:    935.52
	FillingsUpdate:  mu: -0.169486982  nElectrons: 1104.000000
	SubspaceRotationAdjust: set factor to 0.153
ElecMinimize: Iter:   4  F: -7009.500941805230468  |grad|_K:  2.168e-06  alpha:  1.811e-01  linmin:  1.102e-06  t[s]:    945.98
	FillingsUpdate:  mu: -0.169402394  nElectrons: 1104.000000
	SubspaceRotationAdjust: set factor to 0.129
ElecMinimize: Iter:   5  F: -7009.501086214995667  |grad|_K:  1.667e-06  alpha:  2.383e-01  linmin:  1.880e-06  t[s]:    956.47
	FillingsUpdate:  mu: -0.169299937  nElectrons: 1104.000000
	SubspaceRotationAdjust: set factor to 0.115
ElecMinimize: Iter:   6  F: -7009.501160056372100  |grad|_K:  1.167e-06  alpha:  2.060e-01  linmin:  1.181e-06  t[s]:    966.93
	FillingsUpdate:  mu: -0.169342155  nElectrons: 1104.000000
	SubspaceRotationAdjust: set factor to 0.105
ElecMinimize: Iter:   7  F: -7009.501202155103783  |grad|_K:  7.829e-07  alpha:  2.396e-01  linmin:  9.647e-07  t[s]:    977.44
	FillingsUpdate:  mu: -0.169297015  nElectrons: 1104.000000
	SubspaceRotationAdjust: set factor to 0.104
ElecMinimize: Iter:   8  F: -7009.501225374173373  |grad|_K:  7.286e-07  alpha:  2.937e-01  linmin: -7.792e-08  t[s]:    987.89
	FillingsUpdate:  mu: -0.169309493  nElectrons: 1104.000000
	SubspaceRotationAdjust: set factor to 0.103
ElecMinimize: Iter:   9  F: -7009.501245067057425  |grad|_K:  5.333e-07  alpha:  2.876e-01  linmin: -7.775e-07  t[s]:    998.34
	FillingsUpdate:  mu: -0.169379282  nElectrons: 1104.000000
	SubspaceRotationAdjust: set factor to 0.0991
ElecMinimize: Iter:  10  F: -7009.501254775449524  |grad|_K:  4.495e-07  alpha:  2.645e-01  linmin: -7.763e-07  t[s]:   1008.77
	FillingsUpdate:  mu: -0.169317561  nElectrons: 1104.000000
	SubspaceRotationAdjust: set factor to 0.113
ElecMinimize: Iter:  11  F: -7009.501263548863790  |grad|_K:  3.994e-07  alpha:  3.365e-01  linmin: -1.225e-06  t[s]:   1019.21
	FillingsUpdate:  mu: -0.169286505  nElectrons: 1104.000000
	SubspaceRotationAdjust: set factor to 0.109
ElecMinimize: Iter:  12  F: -7009.501269662679988  |grad|_K:  3.318e-07  alpha:  2.968e-01  linmin: -8.361e-07  t[s]:   1029.78
	FillingsUpdate:  mu: -0.169340372  nElectrons: 1104.000000
	SubspaceRotationAdjust: set factor to 0.12
ElecMinimize: Iter:  13  F: -7009.501273402307561  |grad|_K:  2.837e-07  alpha:  2.631e-01  linmin: -3.413e-07  t[s]:   1040.32
	FillingsUpdate:  mu: -0.169343541  nElectrons: 1104.000000
	SubspaceRotationAdjust: set factor to 0.125
ElecMinimize: Iter:  14  F: -7009.501277766815292  |grad|_K:  2.949e-07  alpha:  4.201e-01  linmin: -2.095e-07  t[s]:   1050.84
	FillingsUpdate:  mu: -0.169330546  nElectrons: 1104.000000
	SubspaceRotationAdjust: set factor to 0.125
ElecMinimize: Iter:  15  F: -7009.501280897213292  |grad|_K:  2.681e-07  alpha:  2.790e-01  linmin: -4.905e-08  t[s]:   1061.35
	FillingsUpdate:  mu: -0.169347469  nElectrons: 1104.000000
	SubspaceRotationAdjust: set factor to 0.115
ElecMinimize: Iter:  16  F: -7009.501283711681936  |grad|_K:  2.308e-07  alpha:  3.035e-01  linmin: -2.618e-08  t[s]:   1071.81
	FillingsUpdate:  mu: -0.169342697  nElectrons: 1104.000000
	SubspaceRotationAdjust: set factor to 0.109
ElecMinimize: Iter:  17  F: -7009.501285637674300  |grad|_K:  1.918e-07  alpha:  2.802e-01  linmin: -9.657e-08  t[s]:   1082.25
	FillingsUpdate:  mu: -0.169329243  nElectrons: 1104.000000
	SubspaceRotationAdjust: set factor to 0.104
ElecMinimize: Iter:  18  F: -7009.501286947076551  |grad|_K:  1.424e-07  alpha:  2.759e-01  linmin: -1.144e-07  t[s]:   1092.75
	FillingsUpdate:  mu: -0.169326755  nElectrons: 1104.000000
	SubspaceRotationAdjust: set factor to 0.0935
ElecMinimize: Iter:  19  F: -7009.501287756271267  |grad|_K:  1.244e-07  alpha:  3.094e-01  linmin: -9.014e-08  t[s]:   1103.20
	FillingsUpdate:  mu: -0.169330510  nElectrons: 1104.000000
	SubspaceRotationAdjust: set factor to 0.0924
ElecMinimize: Iter:  20  F: -7009.501288195390771  |grad|_K:  7.076e-08  alpha:  2.201e-01  linmin: -1.348e-07  t[s]:   1113.70
	FillingsUpdate:  mu: -0.169332101  nElectrons: 1104.000000
	SubspaceRotationAdjust: set factor to 0.091
ElecMinimize: Iter:  21  F: -7009.501288432652473  |grad|_K:  6.438e-08  alpha:  3.678e-01  linmin:  3.715e-07  t[s]:   1124.26
	FillingsUpdate:  mu: -0.169329427  nElectrons: 1104.000000
	SubspaceRotationAdjust: set factor to 0.088
ElecMinimize: Iter:  22  F: -7009.501288545019634  |grad|_K:  3.636e-08  alpha:  2.103e-01  linmin: -1.016e-07  t[s]:   1134.78
	FillingsUpdate:  mu: -0.169329166  nElectrons: 1104.000000
	SubspaceRotationAdjust: set factor to 0.092
ElecMinimize: Iter:  23  F: -7009.501288607255447  |grad|_K:  3.369e-08  alpha:  3.679e-01  linmin:  2.771e-07  t[s]:   1145.21
	FillingsUpdate:  mu: -0.169330053  nElectrons: 1104.000000
	SubspaceRotationAdjust: set factor to 0.0933
ElecMinimize: Iter:  24  F: -7009.501288642387408  |grad|_K:  2.282e-08  alpha:  2.397e-01  linmin:  2.664e-07  t[s]:   1155.68
	FillingsUpdate:  mu: -0.169328374  nElectrons: 1104.000000
	SubspaceRotationAdjust: set factor to 0.0998
ElecMinimize: Iter:  25  F: -7009.501288668414418  |grad|_K:  2.116e-08  alpha:  3.828e-01  linmin: -3.541e-07  t[s]:   1166.13
	FillingsUpdate:  mu: -0.169328532  nElectrons: 1104.000000
	SubspaceRotationAdjust: set factor to 0.102
ElecMinimize: Iter:  26  F: -7009.501288683249186  |grad|_K:  1.630e-08  alpha:  2.535e-01  linmin: -6.643e-07  t[s]:   1176.63
	FillingsUpdate:  mu: -0.169329570  nElectrons: 1104.000000
	SubspaceRotationAdjust: set factor to 0.107
ElecMinimize: Iter:  27  F: -7009.501288694560571  |grad|_K:  1.393e-08  alpha:  3.223e-01  linmin: -9.989e-07  t[s]:   1187.14
	FillingsUpdate:  mu: -0.169328515  nElectrons: 1104.000000
	SubspaceRotationAdjust: set factor to 0.11
ElecMinimize: Iter:  28  F: -7009.501288703907449  |grad|_K:  1.404e-08  alpha:  3.692e-01  linmin:  2.537e-07  t[s]:   1197.64
	FillingsUpdate:  mu: -0.169329107  nElectrons: 1104.000000
	SubspaceRotationAdjust: set factor to 0.111
ElecMinimize: Iter:  29  F: -7009.501288710344852  |grad|_K:  1.051e-08  alpha:  2.484e-01  linmin: -3.103e-08  t[s]:   1208.08
ElecMinimize: Converged (|Delta F|<1.000000e-08 for 2 iters).
Setting wave functions to eigenvectors of Hamiltonian
IonicMinimize: 	Predicted alpha/alphaT>3.000000, increasing alphaT to 3.000000e+00.

-------- Electronic minimization -----------
	FillingsUpdate:  mu: -0.171755909  nElectrons: 1104.000000
ElecMinimize: Iter:   0  F: -7009.399050371783233  |grad|_K:  5.053e-05  alpha:  1.000e+00
	FillingsUpdate:  mu: -0.170104583  nElectrons: 1104.000000
	SubspaceRotationAdjust: set factor to 0.116
ElecMinimize: Iter:   1  F: -7009.495398142810700  |grad|_K:  1.159e-05  alpha:  2.979e-01  linmin:  3.677e-03  t[s]:   1227.10
	FillingsUpdate:  mu: -0.170068503  nElectrons: 1104.000000
	SubspaceRotationAdjust: set factor to 0.114
ElecMinimize: Iter:   2  F: -7009.502606508628560  |grad|_K:  7.108e-06  alpha:  4.226e-01  linmin: -1.295e-05  t[s]:   1237.61
	FillingsUpdate:  mu: -0.168967969  nElectrons: 1104.000000
	SubspaceRotationAdjust: set factor to 0.0878
ElecMinimize: Iter:   3  F: -7009.504235175412759  |grad|_K:  4.896e-06  alpha:  2.500e-01  linmin:  4.006e-06  t[s]:   1248.23
	FillingsUpdate:  mu: -0.169437780  nElectrons: 1104.000000
	SubspaceRotationAdjust: set factor to 0.0748
ElecMinimize: Iter:   4  F: -7009.504894238697489  |grad|_K:  3.023e-06  alpha:  2.132e-01  linmin:  1.016e-06  t[s]:   1258.73
	FillingsUpdate:  mu: -0.169195019  nElectrons: 1104.000000
	SubspaceRotationAdjust: set factor to 0.0972
ElecMinimize: Iter:   5  F: -7009.505404047965385  |grad|_K:  1.724e-06  alpha:  4.325e-01  linmin:  2.830e-06  t[s]:   1269.24
	FillingsUpdate:  mu: -0.168902915  nElectrons: 1104.000000
	SubspaceRotationAdjust: set factor to 0.0978
ElecMinimize: Iter:   6  F: -7009.505558639913033  |grad|_K:  1.785e-06  alpha:  4.032e-01  linmin: -4.408e-08  t[s]:   1279.70
	FillingsUpdate:  mu: -0.169014215  nElectrons: 1104.000000
	SubspaceRotationAdjust: set factor to 0.11
ElecMinimize: Iter:   7  F: -7009.505698094727450  |grad|_K:  1.387e-06  alpha:  3.392e-01  linmin: -2.707e-07  t[s]:   1290.30
	FillingsUpdate:  mu: -0.168988169  nElectrons: 1104.000000
	SubspaceRotationAdjust: set factor to 0.119
ElecMinimize: Iter:   8  F: -7009.505796608783385  |grad|_K:  1.353e-06  alpha:  3.971e-01  linmin: -6.997e-07  t[s]:   1300.73
	FillingsUpdate:  mu: -0.168789784  nElectrons: 1104.000000
	SubspaceRotationAdjust: set factor to 0.123
ElecMinimize: Iter:   9  F: -7009.505888628073990  |grad|_K:  1.398e-06  alpha:  3.894e-01  linmin: -4.283e-07  t[s]:   1311.19
	FillingsUpdate:  mu: -0.168812556  nElectrons: 1104.000000
	SubspaceRotationAdjust: set factor to 0.119
ElecMinimize: Iter:  10  F: -7009.505980306141282  |grad|_K:  1.070e-06  alpha:  3.635e-01  linmin: -2.766e-07  t[s]:   1321.68
	FillingsUpdate:  mu: -0.168996067  nElectrons: 1104.000000
	SubspaceRotationAdjust: set factor to 0.1
ElecMinimize: Iter:  11  F: -7009.506039163848982  |grad|_K:  1.117e-06  alpha:  3.987e-01  linmin: -9.884e-07  t[s]:   1332.26
	FillingsUpdate:  mu: -0.168743883  nElectrons: 1104.000000
	SubspaceRotationAdjust: set factor to 0.0923
ElecMinimize: Iter:  12  F: -7009.506094283815401  |grad|_K:  1.005e-06  alpha:  3.425e-01  linmin:  8.935e-08  t[s]:   1342.74
	FillingsUpdate:  mu: -0.168861860  nElectrons: 1104.000000
	SubspaceRotationAdjust: set factor to 0.0912
ElecMinimize: Iter:  13  F: -7009.506132986597549  |grad|_K:  7.249e-07  alpha:  2.972e-01  linmin:  9.110e-08  t[s]:   1353.22
	FillingsUpdate:  mu: -0.168886122  nElectrons: 1104.000000
	SubspaceRotationAdjust: set factor to 0.088
ElecMinimize: Iter:  14  F: -7009.506158196109936  |grad|_K:  6.000e-07  alpha:  3.719e-01  linmin:  1.570e-07  t[s]:   1363.73
	FillingsUpdate:  mu: -0.168809629  nElectrons: 1104.000000
	SubspaceRotationAdjust: set factor to 0.0782
ElecMinimize: Iter:  15  F: -7009.506170642510369  |grad|_K:  4.036e-07  alpha:  2.681e-01  linmin:  1.019e-07  t[s]:   1374.25
	FillingsUpdate:  mu: -0.168831809  nElectrons: 1104.000000
	SubspaceRotationAdjust: set factor to 0.0774
ElecMinimize: Iter:  16  F: -7009.506179044939927  |grad|_K:  3.124e-07  alpha:  3.998e-01  linmin:  3.695e-08  t[s]:   1384.78
	FillingsUpdate:  mu: -0.168840910  nElectrons: 1104.000000
	SubspaceRotationAdjust: set factor to 0.0686
ElecMinimize: Iter:  17  F: -7009.506182037196595  |grad|_K:  2.042e-07  alpha:  2.377e-01  linmin:  1.694e-07  t[s]:   1395.29
	FillingsUpdate:  mu: -0.168835255  nElectrons: 1104.000000
	SubspaceRotationAdjust: set factor to 0.0743
ElecMinimize: Iter:  18  F: -7009.506184320285683  |grad|_K:  1.336e-07  alpha:  4.245e-01  linmin:  2.650e-08  t[s]:   1405.77
	FillingsUpdate:  mu: -0.168833580  nElectrons: 1104.000000
	SubspaceRotationAdjust: set factor to 0.0755
ElecMinimize: Iter:  19  F: -7009.506184989495523  |grad|_K:  1.123e-07  alpha:  2.906e-01  linmin:  1.665e-07  t[s]:   1416.23
	FillingsUpdate:  mu: -0.168840168  nElectrons: 1104.000000
	SubspaceRotationAdjust: set factor to 0.0879
ElecMinimize: Iter:  20  F: -7009.506185570182424  |grad|_K:  7.669e-08  alpha:  3.572e-01  linmin:  4.825e-07  t[s]:   1426.82
	FillingsUpdate:  mu: -0.168835275  nElectrons: 1104.000000
	SubspaceRotationAdjust: set factor to 0.101
ElecMinimize: Iter:  21  F: -7009.506185886350067  |grad|_K:  7.938e-08  alpha:  4.169e-01  linmin:  1.257e-07  t[s]:   1437.41
	FillingsUpdate:  mu: -0.168837210  nElectrons: 1104.000000
	SubspaceRotationAdjust: set factor to 0.113
ElecMinimize: Iter:  22  F: -7009.506186204234837  |grad|_K:  7.344e-08  alpha:  3.915e-01  linmin:  4.031e-07  t[s]:   1447.92
	FillingsUpdate:  mu: -0.168850744  nElectrons: 1104.000000
	SubspaceRotationAdjust: set factor to 0.106
ElecMinimize: Iter:  23  F: -7009.506186426668137  |grad|_K:  6.880e-08  alpha:  3.198e-01  linmin:  3.603e-07  t[s]:   1458.39
	FillingsUpdate:  mu: -0.168839271  nElectrons: 1104.000000
	SubspaceRotationAdjust: set factor to 0.109
ElecMinimize: Iter:  24  F: -7009.506186704891661  |grad|_K:  7.236e-08  alpha:  4.556e-01  linmin: -1.710e-07  t[s]:   1468.86
	FillingsUpdate:  mu: -0.168852553  nElectrons: 1104.000000
	SubspaceRotationAdjust: set factor to 0.114
ElecMinimize: Iter:  25  F: -7009.506186919756146  |grad|_K:  5.283e-08  alpha:  3.176e-01  linmin: -1.857e-07  t[s]:   1479.37
	FillingsUpdate:  mu: -0.168860858  nElectrons: 1104.000000
	SubspaceRotationAdjust: set factor to 0.109
ElecMinimize: Iter:  26  F: -7009.506187069036969  |grad|_K:  5.280e-08  alpha:  4.138e-01  linmin: -5.087e-07  t[s]:   1489.97
	FillingsUpdate:  mu: -0.168853603  nElectrons: 1104.000000
	SubspaceRotationAdjust: set factor to 0.101
ElecMinimize: Iter:  27  F: -7009.506187176201820  |grad|_K:  4.229e-08  alpha:  2.970e-01  linmin:  4.484e-08  t[s]:   1500.70
	FillingsUpdate:  mu: -0.168861520  nElectrons: 1104.000000
	SubspaceRotationAdjust: set factor to 0.0861
ElecMinimize: Iter:  28  F: -7009.506187249601680  |grad|_K:  3.289e-08  alpha:  3.179e-01  linmin: -1.243e-07  t[s]:   1511.32
	FillingsUpdate:  mu: -0.168862149  nElectrons: 1104.000000
	SubspaceRotationAdjust: set factor to 0.0798
ElecMinimize: Iter:  29  F: -7009.506187292003233  |grad|_K:  2.631e-08  alpha:  3.045e-01  linmin:  3.405e-07  t[s]:   1521.83
	FillingsUpdate:  mu: -0.168860672  nElectrons: 1104.000000
	SubspaceRotationAdjust: set factor to 0.0773
ElecMinimize: Iter:  30  F: -7009.506187326699546  |grad|_K:  2.059e-08  alpha:  3.936e-01  linmin:  1.753e-06  t[s]:   1532.29
	FillingsUpdate:  mu: -0.168863705  nElectrons: 1104.000000
	SubspaceRotationAdjust: set factor to 0.0745
ElecMinimize: Iter:  31  F: -7009.506187343708007  |grad|_K:  1.551e-08  alpha:  3.122e-01  linmin: -4.815e-07  t[s]:   1542.80
	FillingsUpdate:  mu: -0.168862686  nElectrons: 1104.000000
	SubspaceRotationAdjust: set factor to 0.075
ElecMinimize: Iter:  32  F: -7009.506187353244968  |grad|_K:  1.187e-08  alpha:  3.161e-01  linmin:  2.622e-06  t[s]:   1553.26
	FillingsUpdate:  mu: -0.168861962  nElectrons: 1104.000000
	SubspaceRotationAdjust: set factor to 0.0816
ElecMinimize: Iter:  33  F: -7009.506187359639625  |grad|_K:  9.547e-09  alpha:  3.841e-01  linmin:  6.402e-06  t[s]:   1563.75
ElecMinimize: Converged (|Delta F|<1.000000e-08 for 2 iters).
Setting wave functions to eigenvectors of Hamiltonian
IonicMinimize: 	Predicted alpha/alphaT>3.000000, increasing alphaT to 9.000000e+00.

-------- Electronic minimization -----------
	FillingsUpdate:  mu: -0.176049714  nElectrons: 1104.000000
ElecMinimize: Iter:   0  F: -7008.527032357264943  |grad|_K:  1.594e-04  alpha:  1.000e+00
	FillingsUpdate:  mu: -0.171523129  nElectrons: 1104.000000
	SubspaceRotationAdjust: set factor to 0.0828
ElecMinimize: Iter:   1  F: -7009.366407662021629  |grad|_K:  5.693e-05  alpha:  3.114e-01  linmin:  2.997e-02  t[s]:   1582.95
	FillingsUpdate:  mu: -0.170911125  nElectrons: 1104.000000
	SubspaceRotationAdjust: set factor to 0.0852
ElecMinimize: Iter:   2  F: -7009.469819807983185  |grad|_K:  2.556e-05  alpha:  2.946e-01  linmin: -4.295e-04  t[s]:   1593.54
	FillingsUpdate:  mu: -0.169713279  nElectrons: 1104.000000
	SubspaceRotationAdjust: set factor to 0.0928
ElecMinimize: Iter:   3  F: -7009.497961826537903  |grad|_K:  1.130e-05  alpha:  3.321e-01  linmin: -7.966e-05  t[s]:   1604.29
	FillingsUpdate:  mu: -0.170026188  nElectrons: 1104.000000
	SubspaceRotationAdjust: set factor to 0.098
ElecMinimize: Iter:   4  F: -7009.505190596550165  |grad|_K:  9.822e-06  alpha:  4.377e-01  linmin: -1.444e-05  t[s]:   1614.80
	FillingsUpdate:  mu: -0.168119186  nElectrons: 1104.000000
	SubspaceRotationAdjust: set factor to 0.0948
ElecMinimize: Iter:   5  F: -7009.508774091549640  |grad|_K:  6.747e-06  alpha:  2.876e-01  linmin:  3.647e-08  t[s]:   1625.33
	FillingsUpdate:  mu: -0.168575530  nElectrons: 1104.000000
	SubspaceRotationAdjust: set factor to 0.096
ElecMinimize: Iter:   6  F: -7009.510376463884313  |grad|_K:  5.223e-06  alpha:  2.729e-01  linmin:  5.313e-07  t[s]:   1636.05
	FillingsUpdate:  mu: -0.167883571  nElectrons: 1104.000000
	SubspaceRotationAdjust: set factor to 0.112
ElecMinimize: Iter:   7  F: -7009.512178176912130  |grad|_K:  4.329e-06  alpha:  5.119e-01  linmin: -7.306e-07  t[s]:   1646.58
	FillingsUpdate:  mu: -0.167468198  nElectrons: 1104.000000
	SubspaceRotationAdjust: set factor to 0.125
ElecMinimize: Iter:   8  F: -7009.513435830427625  |grad|_K:  4.569e-06  alpha:  5.200e-01  linmin: -3.425e-07  t[s]:   1657.11
	FillingsUpdate:  mu: -0.167510704  nElectrons: 1104.000000
	SubspaceRotationAdjust: set factor to 0.132
ElecMinimize: Iter:   9  F: -7009.514568771097402  |grad|_K:  4.341e-06  alpha:  4.205e-01  linmin:  9.159e-08  t[s]:   1667.65
	FillingsUpdate:  mu: -0.167539401  nElectrons: 1104.000000
	SubspaceRotationAdjust: set factor to 0.131
ElecMinimize: Iter:  10  F: -7009.515417604445247  |grad|_K:  3.859e-06  alpha:  3.493e-01  linmin: -5.286e-07  t[s]:   1678.24
	FillingsUpdate:  mu: -0.166934754  nElectrons: 1104.000000
	SubspaceRotationAdjust: set factor to 0.116
ElecMinimize: Iter:  11  F: -7009.516103972514429  |grad|_K:  3.821e-06  alpha:  3.572e-01  linmin:  6.035e-07  t[s]:   1688.69
	FillingsUpdate:  mu: -0.167612374  nElectrons: 1104.000000
	SubspaceRotationAdjust: set factor to 0.092
ElecMinimize: Iter:  12  F: -7009.516614401367406  |grad|_K:  3.077e-06  alpha:  2.714e-01  linmin: -3.946e-07  t[s]:   1699.15
	FillingsUpdate:  mu: -0.167339386  nElectrons: 1104.000000
	SubspaceRotationAdjust: set factor to 0.0861
ElecMinimize: Iter:  13  F: -7009.517023015487212  |grad|_K:  2.303e-06  alpha:  3.345e-01  linmin:  1.004e-06  t[s]:   1709.67
	FillingsUpdate:  mu: -0.167248970  nElectrons: 1104.000000
	SubspaceRotationAdjust: set factor to 0.0828
ElecMinimize: Iter:  14  F: -7009.517257762607187  |grad|_K:  1.803e-06  alpha:  3.433e-01  linmin:  3.955e-07  t[s]:   1720.09
	FillingsUpdate:  mu: -0.167393412  nElectrons: 1104.000000
	SubspaceRotationAdjust: set factor to 0.0786
ElecMinimize: Iter:  15  F: -7009.517378415268468  |grad|_K:  1.258e-06  alpha:  2.876e-01  linmin: -1.583e-08  t[s]:   1730.58
	FillingsUpdate:  mu: -0.167348630  nElectrons: 1104.000000
	SubspaceRotationAdjust: set factor to 0.0781
ElecMinimize: Iter:  16  F: -7009.517451542302297  |grad|_K:  8.741e-07  alpha:  3.580e-01  linmin: -3.671e-08  t[s]:   1741.04
	FillingsUpdate:  mu: -0.167371030  nElectrons: 1104.000000
	SubspaceRotationAdjust: set factor to 0.078
ElecMinimize: Iter:  17  F: -7009.517479748679762  |grad|_K:  6.492e-07  alpha:  2.862e-01  linmin:  3.041e-07  t[s]:   1751.57
	FillingsUpdate:  mu: -0.167354038  nElectrons: 1104.000000
	SubspaceRotationAdjust: set factor to 0.0754
ElecMinimize: Iter:  18  F: -7009.517499003225566  |grad|_K:  4.728e-07  alpha:  3.542e-01  linmin:  8.391e-07  t[s]:   1762.08
	FillingsUpdate:  mu: -0.167374868  nElectrons: 1104.000000
	SubspaceRotationAdjust: set factor to 0.0831
ElecMinimize: Iter:  19  F: -7009.517507302309241  |grad|_K:  3.216e-07  alpha:  2.878e-01  linmin:  6.810e-07  t[s]:   1772.56
	FillingsUpdate:  mu: -0.167374321  nElectrons: 1104.000000
	SubspaceRotationAdjust: set factor to 0.0933
ElecMinimize: Iter:  20  F: -7009.517512528666884  |grad|_K:  2.966e-07  alpha:  3.918e-01  linmin:  5.409e-07  t[s]:   1783.04
	FillingsUpdate:  mu: -0.167385413  nElectrons: 1104.000000
	SubspaceRotationAdjust: set factor to 0.105
ElecMinimize: Iter:  21  F: -7009.517516324868666  |grad|_K:  2.410e-07  alpha:  3.345e-01  linmin:  1.203e-06  t[s]:   1793.73
	FillingsUpdate:  mu: -0.167426804  nElectrons: 1104.000000
	SubspaceRotationAdjust: set factor to 0.117
ElecMinimize: Iter:  22  F: -7009.517519951405120  |grad|_K:  2.683e-07  alpha:  4.843e-01  linmin:  1.151e-06  t[s]:   1804.27
	FillingsUpdate:  mu: -0.167408362  nElectrons: 1104.000000
	SubspaceRotationAdjust: set factor to 0.125
ElecMinimize: Iter:  23  F: -7009.517522675675536  |grad|_K:  2.267e-07  alpha:  2.935e-01  linmin:  4.054e-07  t[s]:   1814.73
	FillingsUpdate:  mu: -0.167453129  nElectrons: 1104.000000
	SubspaceRotationAdjust: set factor to 0.121
ElecMinimize: Iter:  24  F: -7009.517525636604660  |grad|_K:  2.367e-07  alpha:  4.467e-01  linmin:  1.821e-07  t[s]:   1825.27
	FillingsUpdate:  mu: -0.167463579  nElectrons: 1104.000000
	SubspaceRotationAdjust: set factor to 0.117
ElecMinimize: Iter:  25  F: -7009.517528169140860  |grad|_K:  1.742e-07  alpha:  3.505e-01  linmin:  1.829e-07  t[s]:   1835.83
	FillingsUpdate:  mu: -0.167479124  nElectrons: 1104.000000
	SubspaceRotationAdjust: set factor to 0.116
ElecMinimize: Iter:  26  F: -7009.517529777709569  |grad|_K:  1.684e-07  alpha:  4.109e-01  linmin: -3.863e-08  t[s]:   1846.32
	FillingsUpdate:  mu: -0.167488850  nElectrons: 1104.000000
	SubspaceRotationAdjust: set factor to 0.107
ElecMinimize: Iter:  27  F: -7009.517530861574414  |grad|_K:  1.229e-07  alpha:  2.964e-01  linmin:  1.613e-07  t[s]:   1856.82
	FillingsUpdate:  mu: -0.167490669  nElectrons: 1104.000000
	SubspaceRotationAdjust: set factor to 0.103
[...]
	FillingsUpdate:  mu: -0.176878131  nElectrons: 1104.000000
	SubspaceRotationAdjust: set factor to 0.0975
ElecMinimize: Iter:   6  F: -7009.611805230890241  |grad|_K:  5.641e-08  alpha:  3.701e-01  linmin:  2.742e-06  t[s]:  84645.78
	FillingsUpdate:  mu: -0.176871782  nElectrons: 1104.000000
	SubspaceRotationAdjust: set factor to 0.0993
ElecMinimize: Iter:   7  F: -7009.611805413751426  |grad|_K:  6.846e-08  alpha:  4.462e-01  linmin:  2.435e-06  t[s]:  84656.37
	FillingsUpdate:  mu: -0.176873621  nElectrons: 1104.000000
	SubspaceRotationAdjust: set factor to 0.108
ElecMinimize: Iter:   8  F: -7009.611805654812088  |grad|_K:  5.476e-08  alpha:  3.987e-01  linmin: -1.704e-06  t[s]:  84666.83
	FillingsUpdate:  mu: -0.176869797  nElectrons: 1104.000000
	SubspaceRotationAdjust: set factor to 0.103
ElecMinimize: Iter:   9  F: -7009.611805819412439  |grad|_K:  4.640e-08  alpha:  4.247e-01  linmin: -5.855e-06  t[s]:  84677.29
	FillingsUpdate:  mu: -0.176873505  nElectrons: 1104.000000
	SubspaceRotationAdjust: set factor to 0.106
ElecMinimize: Iter:  10  F: -7009.611805952768009  |grad|_K:  4.873e-08  alpha:  4.787e-01  linmin: -5.975e-06  t[s]:  84687.80
	FillingsUpdate:  mu: -0.176869110  nElectrons: 1104.000000
	SubspaceRotationAdjust: set factor to 0.0788
ElecMinimize: Iter:  11  F: -7009.611806026710838  |grad|_K:  3.016e-08  alpha:  2.409e-01  linmin: -2.866e-06  t[s]:  84699.47
	FillingsUpdate:  mu: -0.176871331  nElectrons: 1104.000000
	SubspaceRotationAdjust: set factor to 0.0636
ElecMinimize: Iter:  12  F: -7009.611806078679365  |grad|_K:  2.362e-08  alpha:  4.396e-01  linmin: -4.989e-05  t[s]:  84710.01
	FillingsUpdate:  mu: -0.176870126  nElectrons: 1104.000000
	SubspaceRotationAdjust: set factor to 0.0658
ElecMinimize: Iter:  13  F: -7009.611806103057461  |grad|_K:  1.846e-08  alpha:  3.364e-01  linmin: -7.179e-06  t[s]:  84720.50
	FillingsUpdate:  mu: -0.176870618  nElectrons: 1104.000000
	SubspaceRotationAdjust: set factor to 0.0659
ElecMinimize: Iter:  14  F: -7009.611806117531160  |grad|_K:  1.201e-08  alpha:  3.239e-01  linmin: -6.620e-06  t[s]:  84731.10
	FillingsUpdate:  mu: -0.176870444  nElectrons: 1104.000000
	SubspaceRotationAdjust: set factor to 0.068
ElecMinimize: Iter:  15  F: -7009.611806123505630  |grad|_K:  9.152e-09  alpha:  3.341e-01  linmin: -6.641e-05  t[s]:  84741.56
	FillingsUpdate:  mu: -0.176870617  nElectrons: 1104.000000
	SubspaceRotationAdjust: set factor to 0.073
ElecMinimize: Iter:  16  F: -7009.611806127999444  |grad|_K:  6.946e-09  alpha:  4.129e-01  linmin:  6.093e-04  t[s]:  84752.09
ElecMinimize: Converged (|Delta F|<1.000000e-08 for 2 iters).
Setting wave functions to eigenvectors of Hamiltonian

# Ionic positions in cartesian coordinates:
ion Ni  32.181130469222218  -0.000028463333331   0.611327655000000 0
ion Ni   5.363545148055554  -0.000028463333331   5.974853827499991 0
ion Ni  32.181130469222218  -5.363543250499998   5.974853827499991 0
ion Ni   5.363545148055554  -5.363543250499998   0.611327655000000 0
ion Ni  32.181130469222218 -10.727058037666666   0.611327655000000 0
ion Ni  32.181130469222218 -21.454087611999999   0.611327655000000 0
ion Ni   5.363545148055554 -21.454087611999999   5.974853827499991 0
ion Ni   5.363545148055554 -10.727058037666666   5.974853827499991 0
ion Ni  32.181130469222218 -16.090572824833334   5.974853827499991 0
ion Ni  32.181130469222218 -26.817602399166642   5.974853827499991 0
ion Ni   5.363545148055554 -26.817602399166642   0.611327655000000 0
ion Ni   5.363545148055554 -16.090572824833334   0.611327655000000 0
ion Ni  10.727071320555540  -0.000028463333331   0.611327655000000 0
ion Ni  21.454100894888885  -0.000028463333331   0.611327655000000 0
ion Ni  21.454100894888885  -5.363543250499998   5.974853827499991 0
ion Ni  10.727071320555540  -5.363543250499998   5.974853827499991 0
ion Ni  16.090574722388887  -5.363543250499998   0.611327655000000 0
ion Ni  26.817604296722198  -5.363543250499998   0.611327655000000 0
ion Ni  26.817604296722198  -0.000028463333331   5.974853827499991 0
ion Ni  16.090574722388887  -0.000028463333331   5.974853827499991 0
ion Ni  10.727071320555540 -10.727058037666666   0.611327655000000 0
ion Ni  21.454100894888885 -21.454087611999999   0.611327655000000 0
ion Ni  26.817604296722198 -21.454087611999999   5.974853827499991 0
ion Ni  16.090574722388887 -10.727058037666666   5.974853827499991 0
ion Ni  21.454100894888885 -16.090572824833334   5.974853827499991 0
ion Ni  10.727071320555540 -26.817602399166642   5.974853827499991 0
ion Ni  16.090574722388887 -26.817602399166642   0.611327655000000 0
ion Ni  26.817604296722198 -16.090572824833334   0.611327655000000 0
ion Ni  10.727071320555540 -21.454087611999999   0.611327655000000 0
ion Ni  21.454100894888885 -10.727058037666666   0.611327655000000 0
ion Ni  26.817604296722198 -10.727058037666666   5.974853827499991 0
ion Ni  16.090574722388887 -21.454087611999999   5.974853827499991 0
ion Ni  21.454100894888885 -26.817602399166642   5.974853827499991 0
ion Ni  10.727071320555540 -16.090572824833334   5.974853827499991 0
ion Ni  16.090574722388887 -16.090572824833334   0.611327655000000 0
ion Ni  26.817604296722198 -26.817602399166642   0.611327655000000 0
ion S   4.232269668888879  -4.232271970733331   7.106125994099993 0
ion S  27.948891161222196 -27.948885064266644   4.843581660899996 0
ion S   1.131317225388885 -27.948885064266644   1.742599821599998 0
ion S   9.595784456055540  -4.232271970733331  10.207107833399990 0
ion S  27.948891161222196  -9.595786757899997  10.207107833399990 0
ion S   4.232269668888879  -1.131311128433331   1.742599821599998 0
ion S   9.595784456055540  -1.131311128433331   4.843581660899996 0
ion S   1.131317225388885  -9.595786757899997   7.106125994099993 0
ion S   4.232269668888879 -14.959301545066653   7.106125994099993 0
ion S  27.948891161222196 -17.221855489933308   4.843581660899996 0
ion S   1.131317225388885 -17.221855489933308   1.742599821599998 0
ion S   9.595784456055540 -14.959301545066653  10.207107833399990 0
ion S  27.948891161222196 -20.322816332233330  10.207107833399990 0
ion S   4.232269668888879 -22.585370277100001   1.742599821599998 0
ion S   9.595784456055540 -22.585370277100001   4.843581660899996 0
ion S   1.131317225388885 -20.322816332233330   7.106125994099993 0
ion S  14.959299243222208  -4.232271970733330   7.106125994099993 0
ion S  17.221861586888888 -27.948885064266644   4.843581660899996 0
ion S  17.221861586888888  -9.595786757899997  10.207107833399990 0
ion S  14.959299243222208  -1.131311128433331   1.742599821599998 0
ion S  20.322814030388887  -1.131311128433331   4.843581660899996 0
ion S  22.585376374055553  -9.595786757899997   7.106125994099993 0
ion S  22.585376374055553 -27.948885064266644   1.742599821599998 0
ion S  20.322814030388887  -4.232271970733330  10.207107833399990 0
ion S   4.232269668888879 -25.686331119399977   7.106125994099993 0
ion S  27.948891161222196  -6.494825915599992   4.843581660899996 0
ion S   1.131317225388885  -6.494825915599992   1.742599821599998 0
ion S   9.595784456055540 -25.686331119399977  10.207107833399990 0
ion S  27.948891161222196 -31.049845906566667  10.207107833399990 0
ion S   4.232269668888879 -11.858340702766654   1.742599821599998 0
ion S   9.595784456055540 -11.858340702766654   4.843581660899996 0
ion S   1.131317225388885 -31.049845906566667   7.106125994099993 0
ion S  25.686328817555530  -4.232271970733330   7.106125994099993 0
ion S   6.494832012555547 -27.948885064266644   4.843581660899996 0
ion S   6.494832012555547  -9.595786757899997  10.207107833399990 0
ion S  25.686328817555530  -1.131311128433331   1.742599821599998 0
ion S  31.049843604722220  -1.131311128433331   4.843581660899996 0
ion S  11.858346799722209  -9.595786757899997   7.106125994099993 0
ion S  11.858346799722209 -27.948885064266644   1.742599821599998 0
ion S  31.049843604722220  -4.232271970733330  10.207107833399990 0
ion S  14.959299243222208 -14.959301545066653   7.106125994099993 0
ion S  17.221861586888888 -17.221855489933308   4.843581660899996 0
ion S  22.585376374055553 -17.221855489933308   1.742599821599998 0
ion S  20.322814030388887 -14.959301545066653  10.207107833399990 0
ion S  17.221861586888888 -20.322816332233330  10.207107833399990 0
ion S  14.959299243222208 -22.585370277100001   1.742599821599998 0
ion S  20.322814030388887 -22.585370277100001   4.843581660899996 0
ion S  22.585376374055553 -20.322816332233330   7.106125994099993 0
ion S  14.959299243222208 -25.686331119399977   7.106125994099993 0
ion S  17.221861586888888  -6.494825915599992   4.843581660899996 0
ion S  22.585376374055553  -6.494825915599992   1.742599821599998 0
ion S  20.322814030388887 -25.686331119399977  10.207107833399990 0
ion S  17.221861586888888 -31.049845906566667  10.207107833399990 0
ion S  14.959299243222208 -11.858340702766654   1.742599821599998 0
ion S  20.322814030388887 -11.858340702766654   4.843581660899996 0
ion S  22.585376374055553 -31.049845906566667   7.106125994099993 0
ion S  25.686328817555530 -14.959301545066653   7.106125994099993 0
ion S   6.494832012555547 -17.221855489933308   4.843581660899996 0
ion S  11.858346799722209 -17.221855489933308   1.742599821599998 0
ion S  31.049843604722220 -14.959301545066653  10.207107833399990 0
ion S   6.494832012555547 -20.322816332233330  10.207107833399990 0
ion S  25.686328817555530 -22.585370277100001   1.742599821599998 0
ion S  31.049843604722220 -22.585370277100001   4.843581660899996 0
ion S  11.858346799722209 -20.322816332233330   7.106125994099993 0
ion S  25.686328817555530 -25.686331119399977   7.106125994099993 0
ion S   6.494832012555547  -6.494825915599992   4.843581660899996 0
ion S  11.858346799722209  -6.494825915599992   1.742599821599998 0
ion S  31.049843604722220 -25.686331119399977  10.207107833399990 0
ion S   6.494832012555547 -31.049845906566667  10.207107833399990 0
ion S  25.686328817555530 -11.858340702766654   1.742599821599998 0
ion S  31.049843604722220 -11.858340702766654   4.843581660899996 0
ion S  11.858346799722209 -31.049845906566667   7.106125994099993 0
ion S  14.149138843365506 -19.618348355673071  12.117584056452820 1
ion Na  14.907521373405887 -13.983350593467886  12.347309398584882 1
ion Na  25.751833568037299 -26.441328369171504  12.259114181343946 1

# Forces in Cartesian coordinates:
force Ni   0.023482370837740   0.011670630847459   0.039086150714573 0
force Ni  -0.001759979968700   0.000613541527638   0.008988964679516 0
force Ni   0.001873011879537   0.000342940339160   0.009043975845178 0
force Ni  -0.023484331866886   0.011628272325965   0.039168366820165 0
force Ni   0.023492453859412   0.011606522950978   0.039183827743976 0
force Ni   0.023562235385561   0.011592481320653   0.039221715438040 0
force Ni  -0.001633783234234   0.000448105272036   0.008954898581693 0
force Ni  -0.001682994552922   0.000384969236980   0.008962758617605 0
force Ni   0.001606266560346   0.000571170625916   0.009179627971110 0
force Ni   0.001291605992984  -0.000415500909783   0.007644103285485 0
force Ni  -0.023484238972679   0.011634026700790   0.039135975248960 0
force Ni  -0.023534020459816   0.011653342225003   0.039082581818805 0
force Ni   0.023487730271327   0.011641018309846   0.039187078935933 0
force Ni   0.023472773524654   0.011596060480846   0.039235651029656 0
force Ni   0.001479587102741   0.000287891087802   0.009211704647004 0
force Ni   0.001686731485623   0.000743347374155   0.008938763604549 0
force Ni  -0.023490644395369   0.011571006358391   0.039192511538536 0
force Ni  -0.023546806083453   0.011605832109264   0.039154095274216 0
force Ni  -0.003117019248960   0.000370318558472   0.007347654109267 0
force Ni  -0.001852664632473   0.000601863268327   0.008993892059838 0
force Ni   0.023493685111332   0.011628028352671   0.039197181073185 0
force Ni   0.023317646985848   0.011861024401327   0.038751631794198 0
force Ni  -0.000843433451781   0.000882125766814   0.009369083718971 0
force Ni  -0.002135865324464   0.000380761805643   0.007513180097026 0
force Ni   0.001219675875156   0.000090441034082   0.007810889088440 0
force Ni   0.001865669487845   0.000915358122190   0.008827784869596 0
force Ni  -0.023495613371420   0.011735074456386   0.038985720873274 0
force Ni  -0.023459043445414   0.011598820756379   0.039129432952352 0
force Ni   0.023708646736738   0.011561195552645   0.038897314810990 0
force Ni   0.023494946168349   0.011647898671701   0.039178954803094 0
force Ni  -0.001789982909918   0.000675601987784   0.008958822276655 0
force Ni  -0.003536131837254  -0.003255944915546  -0.000505469682312 0
force Ni   0.002176796733733  -0.001266381135797   0.007159134291802 0
force Ni   0.001847097959952  -0.000506629389767   0.007802739135516 0
force Ni  -0.023793774302998   0.011642128028997   0.038783585588969 0
force Ni  -0.023657909932106   0.011911522292737   0.039474557111704 0
force S  -0.004574064145804   0.004175704503360   0.003740533239976 0
force S   0.005877589029206  -0.003207769825723  -0.011865089544913 0
force S  -0.002659879784119  -0.006932239228731  -0.019463189326464 0
force S  -0.003871745796754  -0.008574898018253  -0.020994479095778 0
force S   0.004045988119447  -0.008376445490747  -0.021093329315798 0
force S   0.002623595773465  -0.006976478428304  -0.019782948897987 0
force S  -0.003158973639286  -0.000942252970958  -0.011409881520825 0
force S   0.004491718458538   0.004160634324291   0.003811419303632 0
force S  -0.004881315788826   0.003770076457784   0.003265469441640 0
force S   0.003181588906751  -0.000444701270196  -0.011490075022796 0
force S  -0.002540940850534  -0.006985209305821  -0.019799406298409 0
force S   0.001688473204508  -0.007118548836041  -0.015435618054150 0
force S   0.001970594441349  -0.010349419517353  -0.018780929513437 0
force S   0.002467000004490  -0.006906711999476  -0.019819561955870 0
force S  -0.004144452798425  -0.001469551602456  -0.013166396273403 0
force S   0.004574084695133   0.004027184817500   0.003299226776495 0
force S  -0.004208972735925   0.004018103407643   0.003605983540802 0
force S   0.003751543382920  -0.000308204499457  -0.010979906156220 0
force S   0.001245145155677  -0.009626530212267  -0.017258358212429 0
force S   0.002551603025041  -0.006890195506648  -0.019753694857597 0
force S  -0.003498075319547  -0.001306538598825  -0.011482650884048 0
force S   0.004905594012083   0.004262089604319   0.002921588550441 0
force S  -0.002732675855034  -0.006707322436310  -0.019581640451157 0
force S  -0.002432024011980  -0.005680439428239  -0.021029514389933 0
force S  -0.003984837232008   0.003743441313732   0.003339334129390 0
force S   0.003361434318314  -0.001006811979807  -0.011406788653535 0
force S  -0.002559812092010  -0.006939167724110  -0.019726249522967 0
force S  -0.003918016523141  -0.008203840589074  -0.020759584484101 0
force S   0.001802462617782  -0.007168694952738  -0.017088982091809 0
force S   0.002583934163558  -0.006947185955002  -0.019644503168072 0
force S  -0.003619597111982  -0.000863912600651  -0.012043809128715 0
force S   0.004810872441002   0.003699398251216   0.003299705634999 0
force S  -0.004418201360986   0.004193788647457   0.003863477751643 0
force S   0.003069844977012  -0.000750571694328  -0.011022391918668 0
force S   0.003485421755891  -0.007653564876647  -0.020773794218317 0
force S   0.002702097835613  -0.006912951898134  -0.019475643827425 0
force S  -0.002911887505343  -0.000800187640054  -0.011017943731838 0
force S   0.004623879375475   0.004665756975080   0.003122986577153 0
force S  -0.002583035027367  -0.007083712146488  -0.019688322821117 0
force S  -0.002917192384599  -0.010738868110025  -0.021631781383950 0
force S  -0.007901443511860   0.006596533693863  -0.005748047952896 0
force S   0.005370244196751  -0.002497063227190  -0.010069822506137 0
force S  -0.002737603071599  -0.006990551472206  -0.019464646083442 0
force S  -0.000559691337447  -0.004227122545753  -0.017224912182045 0
force S   0.002898184376703  -0.004540149358765  -0.004324651763056 0
force S   0.001320253680957  -0.007410606640464  -0.021048829341743 0
force S  -0.004775971621334  -0.000242080808780  -0.009869505761954 0
force S   0.004582161835820   0.003587350364874   0.002400457781482 0
force S  -0.005457548494619   0.004205195865226   0.002564432260289 0
force S   0.003040811515052  -0.000672389688662  -0.011666549715139 0
force S  -0.002533045404840  -0.006893891004934  -0.019772593550501 0
force S   0.004228699892555  -0.011950271901376  -0.016755077389447 0
force S   0.003586225937401  -0.009312763464128  -0.021010705044432 0
force S   0.002618411458520  -0.006744452715508  -0.020103992410544 0
force S  -0.002718774230458  -0.000290993995021  -0.011327850869073 0
force S   0.004601125087436   0.003996468168735   0.003001598868570 0
force S  -0.004096661555061   0.003860708830447   0.003389474740177 0
force S   0.002901886467678  -0.000512155179648  -0.011111467714686 0
force S  -0.002634556443358  -0.006732468318249  -0.019423707310384 0
force S  -0.003301816989607  -0.007294739229645  -0.021172381174500 0
force S   0.003339030529226  -0.010006430219865  -0.021513196262358 0
force S   0.002555124083651  -0.007141998553478  -0.020120472001257 0
force S  -0.002899603510044  -0.000473558582852  -0.011694182817972 0
force S   0.001749885827656   0.002864601238862   0.001899711704370 0
force S  -0.008850440061081   0.007503991975810  -0.005193003621818 0
force S   0.003204467954870  -0.000896986201721  -0.011422766208749 0
force S  -0.002587949781330  -0.006908711374166  -0.019673696862362 0
force S  -0.003007740816890  -0.007031873691943  -0.016092684886388 0
force S   0.003862191597273  -0.008545234176515  -0.021185486022676 0
force S   0.002565455935054  -0.006984998477002  -0.019761172733183 0
force S  -0.003285144168654  -0.000892410293363  -0.011413557031487 0
force S   0.004379773803673   0.004004420117936   0.003625582192472 0
force S   0.000041996448359   0.000057745288801   0.000062078498705 1
force Na   0.000105878169991  -0.000070552520666  -0.000003576501485 1
force Na  -0.000019991878013   0.000069072231083  -0.000108977176114 1

# Energy components:
   Eewald =   -17702.4646632528783812
       EH =   -11588.6968884865000291
     Eloc =    21063.6722603190282825
      Enl =      907.4077836680990004
      Exc =     -957.6873949494854514
 Exc_core =      143.4819634122998764
       KE =     1125.6915352397757033
-------------------------------------
     Etot =    -7008.5954040496635571
       TS =        1.0164020783354664
-------------------------------------
        F =    -7009.6118061279994436

IonicMinimize: Iter: 120  F: -7009.611806127999444  |grad|_K:  6.847e-05  alpha:  1.111e+01  linmin:  6.385e-05  t[s]:  84755.46
IonicMinimize: Converged (|grad|_K<1.000000e-04).

#--- Lowdin population analysis ---
# oxidation-state Ni -0.002 -0.448 -0.448 -0.002 -0.002 -0.001 -0.448 -0.448 -0.448 -0.445 -0.002 -0.002 -0.002 -0.002 -0.448 -0.448 -0.002 -0.002 -0.445 -0.448 -0.001 -0.002 -0.445 -0.449 -0.449 -0.447 -0.001 -0.002 -0.003 -0.002 -0.448 -0.469 -0.448 -0.448 -0.001 -0.002
# oxidation-state S +0.318 +0.441 +0.086 -0.034 -0.028 +0.085 +0.445 +0.318 +0.315 +0.444 +0.085 -0.149 -0.105 +0.085 +0.440 +0.317 +0.317 +0.446 -0.175 +0.085 +0.445 +0.318 +0.085 -0.036 +0.317 +0.444 +0.085 -0.039 -0.170 +0.085 +0.443 +0.317 +0.317 +0.445 -0.041 +0.086 +0.444 +0.303 +0.085 -0.029 +0.231 +0.433 +0.085 -0.167 +0.278 +0.082 +0.437 +0.277 +0.306 +0.445 +0.085 -0.209 -0.039 +0.084 +0.444 +0.308 +0.318 +0.444 +0.085 -0.030 -0.043 +0.081 +0.444 +0.318 +0.237 +0.445 +0.085 -0.140 -0.028 +0.085 +0.445 +0.317 -0.055
# oxidation-state Na +0.723 +0.741


Dumping 'Na2S@NiS2_S.fillings' ... done
Dumping 'Na2S@NiS2_S.wfns' ... done
Dumping 'Na2S@NiS2_S.ionpos' ... done
Dumping 'Na2S@NiS2_S.eigenvals' ... done
End date and time: Sun Oct  6 05:13:03 2024  (Duration: 0-23:32:41.80)
Done!
