
*************** JDFTx 1.7.0  ***************

Start date and time: Sat Dec 28 21:46:46 2024
Executable jdftx_gpu with command-line: -i /home/akim2/JDFTx/Na2S@NiS2_S-PC/Na2S@NiS2_S-PC.in -o /home/akim2/JDFTx/Na2S@NiS2_S-PC/Na2S@NiS2_S-PC.out
Running on hosts (process indices):  exp-8-59 (0)
Divided in process groups (process indices):  0 (0)
gpuInit: Found compatible cuda device 0 'Tesla V100-SXM2-32GB'
gpuInit: Selected device 0
Resource initialization completed at t[s]:      0.69
Run totals: 1 processes, 1 threads, 1 GPUs


Input parsed successfully to the following command list (including defaults):

basis kpoint-dependent
coords-type Cartesian
core-overlap-check vector
coulomb-interaction Slab 001
coulomb-truncation-embed 0 0 7
davidson-band-ratio 1.1
dump End State
dump Ionic State
dump-interval Ionic 5
dump-name Na2S@NiS2_S-PC.$VAR
elec-cutoff 20 100
elec-eigen-algo Davidson
elec-ex-corr gga-PBE
elec-smearing Fermi 0.01
electronic-minimize  \
	dirUpdateScheme      FletcherReeves \
	linminMethod         DirUpdateRecommended \
	nIterations          100 \
	history              15 \
	knormThreshold       0 \
	energyDiffThreshold  1e-08 \
	nEnergyDiff          2 \
	alphaTstart          1 \
	alphaTmin            1e-10 \
	updateTestStepSize   yes \
	alphaTreduceFactor   0.1 \
	alphaTincreaseFactor 3 \
	nAlphaAdjustMax      3 \
	wolfeEnergy          0.0001 \
	wolfeGradient        0.9 \
	fdTest               no
exchange-regularization WignerSeitzTruncated
fluid LinearPCM 298.000000 1.013250
fluid-ex-corr lda-TF lda-PZ
fluid-gummel-loop 10 1.000000e-05
fluid-minimize  \
	dirUpdateScheme      PolakRibiere \
	linminMethod         DirUpdateRecommended \
	nIterations          400 \
	history              15 \
	knormThreshold       1e-11 \
	energyDiffThreshold  0 \
	nEnergyDiff          2 \
	alphaTstart          1 \
	alphaTmin            1e-10 \
	updateTestStepSize   yes \
	alphaTreduceFactor   0.1 \
	alphaTincreaseFactor 3 \
	nAlphaAdjustMax      6 \
	wolfeEnergy          0.0001 \
	wolfeGradient        0.9 \
	fdTest               no
fluid-solvent PC 11.6429 ScalarEOS \
	epsBulk 64 \
	pMol 2.95 \
	epsInf 2.02 \
	Pvap 1.53277e-13 \
	sigmaBulk 2.88e-05 \
	Rvdw 0 \
	Res 0 \
	tauNuc 343133
forces-output-coords Positions
initial-state Na2S@NiS2_S-PC.$VAR
ion Ni  32.181130469222218  -0.000028463333331   0.611327655000000 0
ion Ni   5.363545148055554  -0.000028463333331   5.974853827499990 0
ion Ni  32.181130469222218  -5.363543250499998   5.974853827499990 0
ion Ni   5.363545148055554  -5.363543250499998   0.611327655000000 0
ion Ni  32.181130469222218 -10.727058037666666   0.611327655000000 0
ion Ni  32.181130469222218 -21.454087611999999   0.611327655000000 0
ion Ni   5.363545148055554 -21.454087611999999   5.974853827499990 0
ion Ni   5.363545148055554 -10.727058037666666   5.974853827499990 0
ion Ni  32.181130469222218 -16.090572824833334   5.974853827499990 0
ion Ni  32.181130469222218 -26.817602399166638   5.974853827499990 0
ion Ni   5.363545148055554 -26.817602399166638   0.611327655000000 0
ion Ni   5.363545148055554 -16.090572824833334   0.611327655000000 0
ion Ni  10.727071320555538  -0.000028463333331   0.611327655000000 0
ion Ni  21.454100894888885  -0.000028463333331   0.611327655000000 0
ion Ni  21.454100894888885  -5.363543250499998   5.974853827499990 0
ion Ni  10.727071320555538  -5.363543250499998   5.974853827499990 0
ion Ni  16.090574722388887  -5.363543250499998   0.611327655000000 0
ion Ni  26.817604296722195  -5.363543250499998   0.611327655000000 0
ion Ni  26.817604296722195  -0.000028463333331   5.974853827499990 0
ion Ni  16.090574722388887  -0.000028463333331   5.974853827499990 0
ion Ni  10.727071320555538 -10.727058037666666   0.611327655000000 0
ion Ni  21.454100894888885 -21.454087611999999   0.611327655000000 0
ion Ni  26.817604296722195 -21.454087611999999   5.974853827499990 0
ion Ni  16.090574722388887 -10.727058037666666   5.974853827499990 0
ion Ni  21.454100894888885 -16.090572824833334   5.974853827499990 0
ion Ni  10.727071320555538 -26.817602399166638   5.974853827499990 0
ion Ni  16.090574722388887 -26.817602399166638   0.611327655000000 0
ion Ni  26.817604296722195 -16.090572824833334   0.611327655000000 0
ion Ni  10.727071320555538 -21.454087611999999   0.611327655000000 0
ion Ni  21.454100894888885 -10.727058037666666   0.611327655000000 0
ion Ni  26.817604296722195 -10.727058037666666   5.974853827499990 0
ion Ni  16.090574722388887 -21.454087611999999   5.974853827499990 0
ion Ni  21.454100894888885 -26.817602399166638   5.974853827499990 0
ion Ni  10.727071320555538 -16.090572824833334   5.974853827499990 0
ion Ni  16.090574722388887 -16.090572824833334   0.611327655000000 0
ion Ni  26.817604296722195 -26.817602399166638   0.611327655000000 0
ion S   4.232269668888878  -4.232271970733331   7.106125994099992 0
ion S  27.948891161222193 -27.948885064266641   4.843581660899996 0
ion S   1.131317225388885 -27.948885064266641   1.742599821599998 0
ion S   9.595784456055538  -4.232271970733331  10.207107833399988 0
ion S  27.948891161222193  -9.595786757899997  10.207107833399988 0
ion S   4.232269668888878  -1.131311128433331   1.742599821599998 0
ion S   9.595784456055538  -1.131311128433331   4.843581660899996 0
ion S   1.131317225388885  -9.595786757899997   7.106125994099992 0
ion S   4.232269668888878 -14.959301545066651   7.106125994099992 0
ion S  27.948891161222193 -17.221855489933304   4.843581660899996 0
ion S   1.131317225388885 -17.221855489933304   1.742599821599998 0
ion S   9.595784456055538 -14.959301545066651  10.207107833399988 0
ion S  27.948891161222193 -20.322816332233330  10.207107833399988 0
ion S   4.232269668888878 -22.585370277100001   1.742599821599998 0
ion S   9.595784456055538 -22.585370277100001   4.843581660899996 0
ion S   1.131317225388885 -20.322816332233330   7.106125994099992 0
ion S  14.959299243222206  -4.232271970733330   7.106125994099992 0
ion S  17.221861586888888 -27.948885064266641   4.843581660899996 0
ion S  17.221861586888888  -9.595786757899997  10.207107833399988 0
ion S  14.959299243222206  -1.131311128433331   1.742599821599998 0
ion S  20.322814030388887  -1.131311128433331   4.843581660899996 0
ion S  22.585376374055553  -9.595786757899997   7.106125994099992 0
ion S  22.585376374055553 -27.948885064266641   1.742599821599998 0
ion S  20.322814030388887  -4.232271970733330  10.207107833399988 0
ion S   4.232269668888878 -25.686331119399973   7.106125994099992 0
ion S  27.948891161222193  -6.494825915599991   4.843581660899996 0
ion S   1.131317225388885  -6.494825915599991   1.742599821599998 0
ion S   9.595784456055538 -25.686331119399973  10.207107833399988 0
ion S  27.948891161222193 -31.049845906566667  10.207107833399988 0
ion S   4.232269668888878 -11.858340702766652   1.742599821599998 0
ion S   9.595784456055538 -11.858340702766652   4.843581660899996 0
ion S   1.131317225388885 -31.049845906566667   7.106125994099992 0
ion S  25.686328817555527  -4.232271970733330   7.106125994099992 0
ion S   6.494832012555547 -27.948885064266641   4.843581660899996 0
ion S   6.494832012555547  -9.595786757899997  10.207107833399988 0
ion S  25.686328817555527  -1.131311128433331   1.742599821599998 0
ion S  31.049843604722220  -1.131311128433331   4.843581660899996 0
ion S  11.858346799722208  -9.595786757899997   7.106125994099992 0
ion S  11.858346799722208 -27.948885064266641   1.742599821599998 0
ion S  31.049843604722220  -4.232271970733330  10.207107833399988 0
ion S  14.959299243222206 -14.959301545066651   7.106125994099992 0
ion S  17.221861586888888 -17.221855489933304   4.843581660899996 0
ion S  22.585376374055553 -17.221855489933304   1.742599821599998 0
ion S  20.322814030388887 -14.959301545066651  10.207107833399988 0
ion S  17.221861586888888 -20.322816332233330  10.207107833399988 0
ion S  14.959299243222206 -22.585370277100001   1.742599821599998 0
ion S  20.322814030388887 -22.585370277100001   4.843581660899996 0
ion S  22.585376374055553 -20.322816332233330   7.106125994099992 0
ion S  14.959299243222206 -25.686331119399973   7.106125994099992 0
ion S  17.221861586888888  -6.494825915599991   4.843581660899996 0
ion S  22.585376374055553  -6.494825915599991   1.742599821599998 0
ion S  20.322814030388887 -25.686331119399973  10.207107833399988 0
ion S  17.221861586888888 -31.049845906566667  10.207107833399988 0
ion S  14.959299243222206 -11.858340702766652   1.742599821599998 0
ion S  20.322814030388887 -11.858340702766652   4.843581660899996 0
ion S  22.585376374055553 -31.049845906566667   7.106125994099992 0
ion S  25.686328817555527 -14.959301545066651   7.106125994099992 0
ion S   6.494832012555547 -17.221855489933304   4.843581660899996 0
ion S  11.858346799722208 -17.221855489933304   1.742599821599998 0
ion S  31.049843604722220 -14.959301545066651  10.207107833399988 0
ion S   6.494832012555547 -20.322816332233330  10.207107833399988 0
ion S  25.686328817555527 -22.585370277100001   1.742599821599998 0
ion S  31.049843604722220 -22.585370277100001   4.843581660899996 0
ion S  11.858346799722208 -20.322816332233330   7.106125994099992 0
ion S  25.686328817555527 -25.686331119399973   7.106125994099992 0
ion S   6.494832012555547  -6.494825915599991   4.843581660899996 0
ion S  11.858346799722208  -6.494825915599991   1.742599821599998 0
ion S  31.049843604722220 -25.686331119399973  10.207107833399988 0
ion S   6.494832012555547 -31.049845906566667  10.207107833399988 0
ion S  25.686328817555527 -11.858340702766652   1.742599821599998 0
ion S  31.049843604722220 -11.858340702766652   4.843581660899996 0
ion S  11.858346799722208 -31.049845906566667   7.106125994099992 0
ion S  14.149138843365504 -19.618348355673071  12.117584056452818 1
ion Na  14.907521373405887 -13.983350593467884  12.347309398584880 1
ion Na  25.751833568037299 -26.441328369171501  12.259114181343945 1
ion-species GBRV/$ID_pbe.uspp
ion-width Ecut
ionic-minimize  \
	dirUpdateScheme      FletcherReeves \
	linminMethod         DirUpdateRecommended \
	nIterations          200 \
	history              15 \
	knormThreshold       0.0001 \
	energyDiffThreshold  1e-06 \
	nEnergyDiff          2 \
	alphaTstart          1 \
	alphaTmin            1e-10 \
	updateTestStepSize   yes \
	alphaTreduceFactor   0.1 \
	alphaTincreaseFactor 3 \
	nAlphaAdjustMax      3 \
	wolfeEnergy          0.0001 \
	wolfeGradient        0.9 \
	fdTest               no
kpoint   0.000000000000   0.000000000000   0.000000000000  1.00000000000000
kpoint-folding 1 1 1 
latt-move-scale 1 1 1
latt-scale 1 1 1 
lattice Triclinic 32.1811 32.1811 37.7946 90 90 90
lattice-minimize  \
	dirUpdateScheme      L-BFGS \
	linminMethod         DirUpdateRecommended \
	nIterations          0 \
	history              15 \
	knormThreshold       0 \
	energyDiffThreshold  1e-06 \
	nEnergyDiff          2 \
	alphaTstart          1 \
	alphaTmin            1e-10 \
	updateTestStepSize   yes \
	alphaTreduceFactor   0.1 \
	alphaTincreaseFactor 3 \
	nAlphaAdjustMax      3 \
	wolfeEnergy          0.0001 \
	wolfeGradient        0.9 \
	fdTest               no
lcao-params -1 1e-06 0.01
pcm-variant GLSSA13
spintype no-spin
subspace-rotation-factor 1 yes
symmetries automatic
symmetry-threshold 0.0001



---------- Setting up symmetries ----------

Found 16 point-group symmetries of the bravais lattice
Found 1 space-group symmetries with basis
Applied RMS atom displacement 0 bohrs to make symmetries exact.

---------- Initializing the Grid ----------
R = 
[      32.1811            0            0  ]
[            0      32.1811            0  ]
[            0            0      37.7946  ]
unit cell volume = 39140.9
G =
[   0.195245          0          0  ]
[          0   0.195245          0  ]
[          0          0   0.166246  ]
Minimum fftbox size, Smin = [  148  148  172  ]
Chosen fftbox size, S = [  150  150  180  ]

---------- Initializing tighter grid for wavefunction operations ----------
R = 
[      32.1811            0            0  ]
[            0      32.1811            0  ]
[            0            0      37.7946  ]
unit cell volume = 39140.9
G =
[   0.195245          0          0  ]
[          0   0.195245          0  ]
[          0          0   0.166246  ]
Minimum fftbox size, Smin = [  132  132  156  ]
Chosen fftbox size, S = [  140  140  160  ]

---------- Exchange Correlation functional ----------
Initalized PBE GGA exchange.
Initalized PBE GGA correlation.

---------- Setting up pseudopotentials ----------
Width of ionic core gaussian charges (only for fluid interactions / plotting) set to 0.397384

Reading pseudopotential file '/home/akim2/jdftx_install/build/pseudopotentials/GBRV/ni_pbe.uspp':
  Title: Ni.  Created by USPP 7.3.6 on 1-4-15
  Reference state energy: -170.398381.  18 valence electrons in orbitals:
    |300>  occupation: 2  eigenvalue: -4.804705
    |310>  occupation: 6  eigenvalue: -3.347751
    |320>  occupation: 8  eigenvalue: -1.042415
    |400>  occupation: 0  eigenvalue: -0.795539
    |410>  occupation: 0  eigenvalue: -0.551375
  lMax: 2  lLocal: 3  QijEcut: 6.5
  6 projectors sampled on a log grid with 611 points:
    l: 0  eig: -4.804708  rCut: 1.44
    l: 0  eig: -0.795541  rCut: 1.44
    l: 1  eig: -3.347753  rCut: 1.55
    l: 1  eig: 0.500000  rCut: 1.55
    l: 2  eig: -1.042418  rCut: 1.5
    l: 2  eig: -0.450000  rCut: 1.5
  Partial core density with radius 0.65
  Transforming core density to a uniform radial grid of dG=0.02 with 1283 points.
  Transforming local potential to a uniform radial grid of dG=0.02 with 1283 points.
  Transforming nonlocal projectors to a uniform radial grid of dG=0.02 with 432 points.
  Transforming density augmentations to a uniform radial grid of dG=0.02 with 1283 points.
  Transforming atomic orbitals to a uniform radial grid of dG=0.02 with 432 points.
  Core radius for overlap checks: 1.55 bohrs.

Reading pseudopotential file '/home/akim2/jdftx_install/build/pseudopotentials/GBRV/s_pbe.uspp':
  Title: S.  Created by USPP 7.3.6 on 1-4-15
  Reference state energy: -11.898476.  6 valence electrons in orbitals:
    |300>  occupation: 2  eigenvalue: -0.634167
    |310>  occupation: 4  eigenvalue: -0.257568
  lMax: 2  lLocal: 3  QijEcut: 6
  6 projectors sampled on a log grid with 635 points:
    l: 0  eig: -0.634161  rCut: 1.5
    l: 0  eig: 1.500000  rCut: 1.5
    l: 1  eig: -0.257567  rCut: 1.5
    l: 1  eig: 1.500000  rCut: 1.5
    l: 2  eig: -1.000000  rCut: 1.5
    l: 2  eig: 1.500000  rCut: 1.5
  Partial core density with radius 1.15
  Transforming core density to a uniform radial grid of dG=0.02 with 1283 points.
  Transforming local potential to a uniform radial grid of dG=0.02 with 1283 points.
  Transforming nonlocal projectors to a uniform radial grid of dG=0.02 with 432 points.
  Transforming density augmentations to a uniform radial grid of dG=0.02 with 1283 points.
  Transforming atomic orbitals to a uniform radial grid of dG=0.02 with 432 points.
  Core radius for overlap checks: 1.50 bohrs.

Reading pseudopotential file '/home/akim2/jdftx_install/build/pseudopotentials/GBRV/na_pbe.uspp':
  Title: Na.  Created by USPP 7.3.6 on 23-9-15
  Reference state energy: -47.625620.  9 valence electrons in orbitals:
    |200>  occupation: 2  eigenvalue: -2.085638
    |210>  occupation: 6  eigenvalue: -1.053708
    |300>  occupation: 1  eigenvalue: -0.100838
  lMax: 2  lLocal: 0  QijEcut: 6
  5 projectors sampled on a log grid with 657 points:
    l: 0  eig: -2.085640  rCut: 1.37
    l: 0  eig: -0.100839  rCut: 1.37
    l: 1  eig: -1.053708  rCut: 1.47
    l: 1  eig: 0.500000  rCut: 1.47
    l: 2  eig: 0.750000  rCut: 2
  Transforming local potential to a uniform radial grid of dG=0.02 with 1283 points.
  Transforming nonlocal projectors to a uniform radial grid of dG=0.02 with 432 points.
  Transforming density augmentations to a uniform radial grid of dG=0.02 with 1283 points.
  Transforming atomic orbitals to a uniform radial grid of dG=0.02 with 432 points.
  Core radius for overlap checks: 2.00 bohrs.

Initialized 3 species with 111 total atoms.

Folded 1 k-points by 1x1x1 to 1 k-points.

---------- Setting up k-points, bands, fillings ----------
No reducable k-points. 
Computing the number of bands and number of electrons
Calculating initial fillings.
nElectrons: 1104.000000   nBands: 770   nStates: 1

----- Setting up reduced wavefunction bases (one per k-point) -----
average nbasis = 167141.000 , ideal nbasis = 167213.066

---------- Setting up coulomb interaction ----------
Fluid mode embedding: using embedded box, but periodic Coulomb kernel.
(Fluid response is responsible for (approximate) separation between periodic images.)
Setting up double-sized grid for truncated Coulomb potentials:
R = 
[      32.1811            0            0  ]
[            0      32.1811            0  ]
[            0            0      75.5892  ]
unit cell volume = 78281.9
G =
[   0.195245          0          0  ]
[          0   0.195245          0  ]
[          0          0  0.0831228  ]
Chosen fftbox size, S = [  150  150  360  ]
Integer grid location selected as the embedding center:
   Grid: [  0  0  33  ]
   Lattice: [  0  0  0.185212  ]
   Cartesian: [  0  0  7  ]
Constructing Wigner-Seitz cell: 6 faces (6 quadrilaterals, 0 hexagons)
Range-separation parameter for embedded mesh potentials due to point charges: 0.584339 bohrs.

---------- Setting up ewald sum ----------
Optimum gaussian width for ewald sums = 7.784726 bohr.
Real space sum over 405 unit cells with max indices [  4  4  2  ]
Reciprocal space sum over 9537 terms with max indices [  8  8  16  ]

---------- Allocating electronic variables ----------
Initializing wave functions:  linear combination of atomic orbitals
Ni pseudo-atom occupations:   s ( 2 0 )  p ( 6 0 )  d ( 10 )
S pseudo-atom occupations:   s ( 2 )  p ( 4 )
Na pseudo-atom occupations:   s ( 2 1 )  p ( 6 )
	FillingsUpdate:  mu: -0.941805090  nElectrons: 1104.000000
LCAOMinimize: Iter:   0  F: -6296.7214127605511749  |grad|_K:  3.316e-02  alpha:  1.000e+00
	FillingsUpdate:  mu: +2.834594208  nElectrons: 1104.000000
LCAOMinimize: Iter:   1  F: -6601.3814633131532901  |grad|_K:  8.740e-02  alpha:  2.116e-01  linmin:  9.378e-02  cgtest: -7.443e-01  t[s]:     20.14
LCAOMinimize: 	Bad step direction: g.d > 0.
LCAOMinimize: 	Undoing step.
LCAOMinimize: 	Step failed: resetting search direction.
	FillingsUpdate:  mu: +2.834594208  nElectrons: 1104.000000
LCAOMinimize: Iter:   2  F: -6601.3814633131532901  |grad|_K:  8.740e-02  alpha:  0.000e+00
	FillingsUpdate:  mu: +1.213699505  nElectrons: 1104.000000
LCAOMinimize: Iter:   3  F: -6933.6410851511673172  |grad|_K:  8.399e-02  alpha:  4.990e-02  linmin: -3.183e-01  cgtest:  3.315e-01  t[s]:     30.42
LCAOMinimize: 	Step increased F by 3.167368e+01, reducing alpha to 1.324760e-03.
	FillingsUpdate:  mu: +1.199020869  nElectrons: 1104.000000
LCAOMinimize: Iter:   4  F: -6948.2319707287733763  |grad|_K:  7.549e-02  alpha:  1.325e-03  linmin: -3.448e-01  cgtest:  9.399e-01  t[s]:     40.77
LCAOMinimize: Encountered beta<0, resetting CG.
LCAOMinimize: 	Predicted alpha/alphaT>3.000000, increasing alphaT to 3.974279e-03.
LCAOMinimize: 	Predicted alpha/alphaT>3.000000, increasing alphaT to 1.192284e-02.
	FillingsUpdate:  mu: +0.581190401  nElectrons: 1104.000000
LCAOMinimize: Iter:   5  F: -6970.1038863155754370  |grad|_K:  7.143e-02  alpha:  2.646e-02  linmin:  3.472e-01  cgtest: -5.760e-01  t[s]:     49.93
LCAOMinimize: 	Bad step direction: g.d > 0.
LCAOMinimize: 	Undoing step.
LCAOMinimize: 	Step failed: resetting search direction.
	FillingsUpdate:  mu: +0.581190401  nElectrons: 1104.000000
LCAOMinimize: Iter:   6  F: -6970.1038863155754370  |grad|_K:  7.143e-02  alpha:  0.000e+00
	FillingsUpdate:  mu: +0.401692244  nElectrons: 1104.000000
LCAOMinimize: Iter:   7  F: -6991.0919569607294761  |grad|_K:  2.264e-02  alpha:  1.598e-02  linmin:  5.155e-02  cgtest: -3.928e-01  t[s]:     60.33
LCAOMinimize: 	Predicted alpha/alphaT>3.000000, increasing alphaT to 4.793268e-02.
	FillingsUpdate:  mu: +0.019702428  nElectrons: 1104.000000
LCAOMinimize: Iter:   8  F: -6996.6034791202246197  |grad|_K:  3.023e-02  alpha:  5.722e-02  linmin:  1.800e-01  cgtest:  2.465e-01  t[s]:     67.92
	FillingsUpdate:  mu: +0.014023328  nElectrons: 1104.000000
LCAOMinimize: Iter:   9  F: -6996.6082245363440961  |grad|_K:  3.021e-02  alpha:  4.902e-04  linmin:  2.753e-04  cgtest:  9.967e-01  t[s]:     73.96
LCAOMinimize: 	Predicted alpha/alphaT>3.000000, increasing alphaT to 1.470675e-03.
LCAOMinimize: 	Predicted alpha/alphaT>3.000000, increasing alphaT to 4.412025e-03.
LCAOMinimize: 	Predicted alpha/alphaT>3.000000, increasing alphaT to 1.323607e-02.
	FillingsUpdate:  mu: +0.112471363  nElectrons: 1104.000000
LCAOMinimize: Iter:  10  F: -6998.3436952308948094  |grad|_K:  3.408e-02  alpha:  3.028e-02  linmin:  3.834e-01  cgtest: -7.697e-01  t[s]:     83.18
LCAOMinimize: 	Bad step direction: g.d > 0.
LCAOMinimize: 	Undoing step.
LCAOMinimize: 	Step failed: resetting search direction.
	FillingsUpdate:  mu: +0.112471363  nElectrons: 1104.000000
LCAOMinimize: Iter:  11  F: -6998.3436952308948094  |grad|_K:  3.408e-02  alpha:  0.000e+00
	FillingsUpdate:  mu: +0.022522598  nElectrons: 1104.000000
LCAOMinimize: Iter:  12  F: -7003.0542009331638837  |grad|_K:  5.443e-03  alpha:  1.487e-02  linmin:  1.930e-01  cgtest: -4.974e-01  t[s]:     93.53
LCAOMinimize: 	Predicted alpha/alphaT>3.000000, increasing alphaT to 4.462448e-02.
	FillingsUpdate:  mu: +0.058334017  nElectrons: 1104.000000
LCAOMinimize: Iter:  13  F: -7003.5114118947321913  |grad|_K:  7.731e-03  alpha:  6.685e-02  linmin:  1.006e-03  cgtest:  4.988e-01  t[s]:    101.16
	FillingsUpdate:  mu: +0.016800955  nElectrons: 1104.000000
LCAOMinimize: Iter:  14  F: -7003.8373248246716685  |grad|_K:  3.145e-03  alpha:  1.449e-02  linmin: -1.432e-01  cgtest:  4.920e-01  t[s]:    107.27
LCAOMinimize: Encountered beta<0, resetting CG.
LCAOMinimize: 	Predicted alpha/alphaT>3.000000, increasing alphaT to 4.346034e-02.
	FillingsUpdate:  mu: -0.022779019  nElectrons: 1104.000000
LCAOMinimize: Iter:  15  F: -7003.9743046128805872  |grad|_K:  2.653e-03  alpha:  4.670e-02  linmin:  7.101e-03  cgtest: -3.086e-02  t[s]:    114.89
	FillingsUpdate:  mu: -0.032092937  nElectrons: 1104.000000
LCAOMinimize: Iter:  16  F: -7004.0264356684210725  |grad|_K:  2.446e-03  alpha:  2.484e-02  linmin: -2.231e-03  cgtest:  6.540e-02  t[s]:    120.98
LCAOMinimize: 	Predicted alpha/alphaT>3.000000, increasing alphaT to 7.451912e-02.
	FillingsUpdate:  mu: -0.042616980  nElectrons: 1104.000000
LCAOMinimize: Iter:  17  F: -7004.1625505847869135  |grad|_K:  2.572e-03  alpha:  7.599e-02  linmin:  6.433e-03  cgtest: -6.164e-02  t[s]:    128.63
	FillingsUpdate:  mu: -0.052342393  nElectrons: 1104.000000
LCAOMinimize: Iter:  18  F: -7004.2139258315519328  |grad|_K:  1.223e-03  alpha:  2.508e-02  linmin: -2.053e-02  cgtest:  3.906e-01  t[s]:    134.71
	FillingsUpdate:  mu: -0.052164988  nElectrons: 1104.000000
LCAOMinimize: Iter:  19  F: -7004.2257350220297667  |grad|_K:  1.029e-03  alpha:  2.623e-02  linmin: -1.085e-03  cgtest: -1.757e-02  t[s]:    140.70
	FillingsUpdate:  mu: -0.054962582  nElectrons: 1104.000000
LCAOMinimize: Iter:  20  F: -7004.2450234956495478  |grad|_K:  1.316e-03  alpha:  6.095e-02  linmin: -5.070e-04  cgtest:  6.676e-03  t[s]:    147.48
	FillingsUpdate:  mu: -0.056363566  nElectrons: 1104.000000
LCAOMinimize: Iter:  21  F: -7004.2601509444702970  |grad|_K:  7.535e-04  alpha:  2.931e-02  linmin:  6.368e-05  cgtest:  6.438e-02  t[s]:    153.46
	FillingsUpdate:  mu: -0.055926133  nElectrons: 1104.000000
LCAOMinimize: Iter:  22  F: -7004.2633156506235537  |grad|_K:  4.449e-04  alpha:  1.875e-02  linmin: -2.304e-05  cgtest:  8.101e-03  t[s]:    159.50
	FillingsUpdate:  mu: -0.054759768  nElectrons: 1104.000000
LCAOMinimize: Iter:  23  F: -7004.2663168201825101  |grad|_K:  3.699e-04  alpha:  5.105e-02  linmin:  4.523e-04  cgtest: -1.771e-03  t[s]:    165.56
	FillingsUpdate:  mu: -0.055141214  nElectrons: 1104.000000
LCAOMinimize: Iter:  24  F: -7004.2683274378059650  |grad|_K:  4.557e-04  alpha:  4.951e-02  linmin:  3.345e-04  cgtest:  7.784e-03  t[s]:    171.54
	FillingsUpdate:  mu: -0.060056923  nElectrons: 1104.000000
LCAOMinimize: Iter:  25  F: -7004.2702873469170299  |grad|_K:  3.235e-04  alpha:  3.166e-02  linmin: -9.042e-05  cgtest:  2.258e-02  t[s]:    177.52
	FillingsUpdate:  mu: -0.061912824  nElectrons: 1104.000000
LCAOMinimize: Iter:  26  F: -7004.2713651196791034  |grad|_K:  2.674e-04  alpha:  3.465e-02  linmin:  4.236e-04  cgtest:  4.205e-04  t[s]:    183.57
	FillingsUpdate:  mu: -0.061901938  nElectrons: 1104.000000
LCAOMinimize: Iter:  27  F: -7004.2719831121357856  |grad|_K:  2.046e-04  alpha:  2.916e-02  linmin:  4.305e-05  cgtest:  9.718e-03  t[s]:    189.63
	FillingsUpdate:  mu: -0.062025140  nElectrons: 1104.000000
LCAOMinimize: Iter:  28  F: -7004.2723273103365500  |grad|_K:  1.339e-04  alpha:  2.767e-02  linmin:  7.290e-05  cgtest: -1.734e-03  t[s]:    195.62
	FillingsUpdate:  mu: -0.061223975  nElectrons: 1104.000000
LCAOMinimize: Iter:  29  F: -7004.2725721027509280  |grad|_K:  1.520e-04  alpha:  4.596e-02  linmin: -6.231e-05  cgtest: -2.253e-04  t[s]:    201.56
	FillingsUpdate:  mu: -0.060667409  nElectrons: 1104.000000
LCAOMinimize: Iter:  30  F: -7004.2729378022559104  |grad|_K:  1.564e-04  alpha:  5.323e-02  linmin:  1.632e-05  cgtest:  6.963e-04  t[s]:    207.62
LCAOMinimize: None of the convergence criteria satisfied after 30 iterations.
----- createFluidSolver() ----- (Fluid-side solver setup)
   Initializing fluid molecule 'PC'
     Net charge: 0   dipole magnitude: 0
     Initializing spherical shell mfKernel with radius 0 Bohr
     deltaS corrections:

Correction to mu due to finite nuclear width = -0.0139929
   Cavity determined by nc: 0.00098 and sigma: 0.6
   Effective cavity tension: 9.53e-06 Eh/bohr^2 to account for cavitation and dispersion.


---- Citations for features of the code used in this run ----

   Software package:
      R. Sundararaman, K. Letchworth-Weaver, K.A. Schwarz, D. Gunceler, Y. Ozhabes and T.A. Arias, 'JDFTx: software for joint density-functional theory', SoftwareX 6, 278 (2017)

   gga-PBE exchange-correlation functional:
      J.P. Perdew, K. Burke and M. Ernzerhof, Phys. Rev. Lett. 77, 3865 (1996)

   Pseudopotentials:
      KF Garrity, JW Bennett, KM Rabe and D Vanderbilt, Comput. Mater. Sci. 81, 446 (2014)

   Truncated Coulomb potentials:
      R. Sundararaman and T.A. Arias, Phys. Rev. B 87, 165122 (2013)

   Linear/nonlinear dielectric/ionic fluid model with effective cavity tension:
      D. Gunceler, K. Letchworth-Weaver, R. Sundararaman, K.A. Schwarz and T.A. Arias, Modelling Simul. Mater. Sci. Eng. 21, 074005 (2013)

   Total energy minimization with Auxiliary Hamiltonian:
      C. Freysoldt, S. Boeck, and J. Neugebauer, Phys. Rev. B 79, 241103(R) (2009)

This list may not be complete. Please suggest additional citations or
report any other bugs at https://github.com/shankar1729/jdftx/issues

Initialization completed successfully at t[s]:    209.23

Fluid solver invoked on fresh (random / LCAO) wavefunctions
Running a vacuum solve first:

-------- Initial electronic minimization -----------
	FillingsUpdate:  mu: -0.060667409  nElectrons: 1104.000000
ElecMinimize: Iter:   0  F: -7004.272937802258639  |grad|_K:  2.181e-04  alpha:  1.000e+00
	FillingsUpdate:  mu: -0.105387176  nElectrons: 1104.000000
	SubspaceRotationAdjust: set factor to 0.675
ElecMinimize: Iter:   1  F: -7006.059561522492004  |grad|_K:  3.171e-04  alpha:  2.837e-01  linmin: -1.394e-05  t[s]:    226.19
	FillingsUpdate:  mu: -0.005216762  nElectrons: 1104.000000
	SubspaceRotationAdjust: set factor to 0.379
ElecMinimize: Iter:   2  F: -7006.258171324818250  |grad|_K:  4.997e-04  alpha:  5.389e-02  linmin:  3.335e-04  t[s]:    236.72
	FillingsUpdate:  mu: +0.034376013  nElectrons: 1104.000000
	SubspaceRotationAdjust: set factor to 0.221
ElecMinimize: Iter:   3  F: -7006.593104023279011  |grad|_K:  4.346e-04  alpha:  2.904e-02  linmin:  4.807e-06  t[s]:    247.22
	FillingsUpdate:  mu: -0.017167655  nElectrons: 1104.000000
	SubspaceRotationAdjust: set factor to 0.308
ElecMinimize: Iter:   4  F: -7007.660453133062219  |grad|_K:  2.120e-04  alpha:  4.364e-02  linmin: -1.531e-05  t[s]:    257.72
	FillingsUpdate:  mu: -0.024962324  nElectrons: 1104.000000
	SubspaceRotationAdjust: set factor to 0.213
ElecMinimize: Iter:   5  F: -7008.292449577137631  |grad|_K:  2.003e-04  alpha:  1.065e-01  linmin:  1.496e-05  t[s]:    268.28
	FillingsUpdate:  mu: -0.058598560  nElectrons: 1104.000000
	SubspaceRotationAdjust: set factor to 0.277
ElecMinimize: Iter:   6  F: -7008.599071803341758  |grad|_K:  1.155e-04  alpha:  6.201e-02  linmin:  8.634e-06  t[s]:    278.81
	FillingsUpdate:  mu: -0.038715086  nElectrons: 1104.000000
	SubspaceRotationAdjust: set factor to 0.262
ElecMinimize: Iter:   7  F: -7008.846532675751405  |grad|_K:  1.441e-04  alpha:  1.426e-01  linmin: -2.872e-05  t[s]:    289.29
	FillingsUpdate:  mu: -0.085020842  nElectrons: 1104.000000
	SubspaceRotationAdjust: set factor to 0.221
ElecMinimize: Iter:   8  F: -7009.192948201611216  |grad|_K:  9.420e-05  alpha:  1.253e-01  linmin:  9.244e-06  t[s]:    299.85
	FillingsUpdate:  mu: -0.107194216  nElectrons: 1104.000000
	SubspaceRotationAdjust: set factor to 0.237
ElecMinimize: Iter:   9  F: -7009.282889627345867  |grad|_K:  6.655e-05  alpha:  7.790e-02  linmin: -3.200e-06  t[s]:    310.46
	FillingsUpdate:  mu: -0.095367973  nElectrons: 1104.000000
	SubspaceRotationAdjust: set factor to 0.259
ElecMinimize: Iter:  10  F: -7009.375123133070701  |grad|_K:  7.504e-05  alpha:  1.619e-01  linmin:  3.167e-05  t[s]:    321.01
	FillingsUpdate:  mu: -0.086636484  nElectrons: 1104.000000
	SubspaceRotationAdjust: set factor to 0.259
ElecMinimize: Iter:  11  F: -7009.445471480099513  |grad|_K:  5.530e-05  alpha:  9.788e-02  linmin:  1.228e-05  t[s]:    331.56
	FillingsUpdate:  mu: -0.087021324  nElectrons: 1104.000000
	SubspaceRotationAdjust: set factor to 0.262
ElecMinimize: Iter:  12  F: -7009.482664123168433  |grad|_K:  4.296e-05  alpha:  9.444e-02  linmin: -4.622e-07  t[s]:    342.07
	FillingsUpdate:  mu: -0.091259761  nElectrons: 1104.000000
	SubspaceRotationAdjust: set factor to 0.24
ElecMinimize: Iter:  13  F: -7009.509317067555457  |grad|_K:  4.311e-05  alpha:  1.120e-01  linmin:  1.471e-06  t[s]:    352.63
	FillingsUpdate:  mu: -0.094748507  nElectrons: 1104.000000
	SubspaceRotationAdjust: set factor to 0.191
ElecMinimize: Iter:  14  F: -7009.540938127989648  |grad|_K:  3.910e-05  alpha:  1.318e-01  linmin: -6.882e-06  t[s]:    363.16
	FillingsUpdate:  mu: -0.094250643  nElectrons: 1104.000000
	SubspaceRotationAdjust: set factor to 0.237
ElecMinimize: Iter:  15  F: -7009.559398577545835  |grad|_K:  2.551e-05  alpha:  9.367e-02  linmin: -1.397e-06  t[s]:    373.58
	FillingsUpdate:  mu: -0.094647274  nElectrons: 1104.000000
	SubspaceRotationAdjust: set factor to 0.234
ElecMinimize: Iter:  16  F: -7009.570536134759095  |grad|_K:  2.394e-05  alpha:  1.324e-01  linmin: -3.570e-06  t[s]:    384.15
	FillingsUpdate:  mu: -0.097223756  nElectrons: 1104.000000
	SubspaceRotationAdjust: set factor to 0.25
ElecMinimize: Iter:  17  F: -7009.580297393537876  |grad|_K:  2.360e-05  alpha:  1.315e-01  linmin:  1.218e-06  t[s]:    394.71
	FillingsUpdate:  mu: -0.098281016  nElectrons: 1104.000000
	SubspaceRotationAdjust: set factor to 0.277
ElecMinimize: Iter:  18  F: -7009.590005220575222  |grad|_K:  2.109e-05  alpha:  1.354e-01  linmin:  1.133e-06  t[s]:    405.26
	FillingsUpdate:  mu: -0.096800293  nElectrons: 1104.000000
	SubspaceRotationAdjust: set factor to 0.307
ElecMinimize: Iter:  19  F: -7009.595682580596986  |grad|_K:  1.690e-05  alpha:  9.920e-02  linmin: -1.928e-07  t[s]:    415.81
	FillingsUpdate:  mu: -0.096048156  nElectrons: 1104.000000
	SubspaceRotationAdjust: set factor to 0.323
ElecMinimize: Iter:  20  F: -7009.600084930990306  |grad|_K:  1.535e-05  alpha:  1.194e-01  linmin:  2.745e-08  t[s]:    426.37
	FillingsUpdate:  mu: -0.096519786  nElectrons: 1104.000000
	SubspaceRotationAdjust: set factor to 0.305
ElecMinimize: Iter:  21  F: -7009.603238195716585  |grad|_K:  1.455e-05  alpha:  1.037e-01  linmin:  3.889e-07  t[s]:    436.93
	FillingsUpdate:  mu: -0.097000332  nElectrons: 1104.000000
	SubspaceRotationAdjust: set factor to 0.325
ElecMinimize: Iter:  22  F: -7009.606401674158406  |grad|_K:  1.208e-05  alpha:  1.159e-01  linmin:  2.556e-07  t[s]:    447.48
	FillingsUpdate:  mu: -0.097601634  nElectrons: 1104.000000
	SubspaceRotationAdjust: set factor to 0.32
ElecMinimize: Iter:  23  F: -7009.608144635352801  |grad|_K:  1.011e-05  alpha:  9.270e-02  linmin: -3.405e-07  t[s]:    458.03
	FillingsUpdate:  mu: -0.098934843  nElectrons: 1104.000000
	SubspaceRotationAdjust: set factor to 0.358
ElecMinimize: Iter:  24  F: -7009.609600371467423  |grad|_K:  8.913e-06  alpha:  1.102e-01  linmin:  3.332e-07  t[s]:    468.56
	FillingsUpdate:  mu: -0.099377629  nElectrons: 1104.000000
	SubspaceRotationAdjust: set factor to 0.352
ElecMinimize: Iter:  25  F: -7009.610806548141227  |grad|_K:  9.072e-06  alpha:  1.178e-01  linmin: -3.324e-10  t[s]:    479.13
	FillingsUpdate:  mu: -0.098446586  nElectrons: 1104.000000
	SubspaceRotationAdjust: set factor to 0.406
ElecMinimize: Iter:  26  F: -7009.611715523196835  |grad|_K:  5.988e-06  alpha:  8.575e-02  linmin: -2.726e-07  t[s]:    489.69
	FillingsUpdate:  mu: -0.097688792  nElectrons: 1104.000000
	SubspaceRotationAdjust: set factor to 0.382
ElecMinimize: Iter:  27  F: -7009.612158024347991  |grad|_K:  5.432e-06  alpha:  9.559e-02  linmin: -7.737e-07  t[s]:    500.27
	FillingsUpdate:  mu: -0.097668741  nElectrons: 1104.000000
	SubspaceRotationAdjust: set factor to 0.4
ElecMinimize: Iter:  28  F: -7009.612491904693343  |grad|_K:  4.551e-06  alpha:  8.761e-02  linmin:  2.918e-07  t[s]:    510.85
	FillingsUpdate:  mu: -0.097909172  nElectrons: 1104.000000
	SubspaceRotationAdjust: set factor to 0.408
ElecMinimize: Iter:  29  F: -7009.612780719146940  |grad|_K:  3.904e-06  alpha:  1.082e-01  linmin:  6.227e-07  t[s]:    521.36
	FillingsUpdate:  mu: -0.097967251  nElectrons: 1104.000000
	SubspaceRotationAdjust: set factor to 0.379
ElecMinimize: Iter:  30  F: -7009.612949671087335  |grad|_K:  3.737e-06  alpha:  8.603e-02  linmin:  1.529e-07  t[s]:    531.88
	FillingsUpdate:  mu: -0.098124373  nElectrons: 1104.000000
	SubspaceRotationAdjust: set factor to 0.396
ElecMinimize: Iter:  31  F: -7009.613149373061788  |grad|_K:  2.888e-06  alpha:  1.109e-01  linmin:  6.928e-07  t[s]:    542.37
	FillingsUpdate:  mu: -0.098069324  nElectrons: 1104.000000
	SubspaceRotationAdjust: set factor to 0.338
ElecMinimize: Iter:  32  F: -7009.613238494190227  |grad|_K:  2.472e-06  alpha:  8.289e-02  linmin:  4.509e-07  t[s]:    552.89
	FillingsUpdate:  mu: -0.097832950  nElectrons: 1104.000000
	SubspaceRotationAdjust: set factor to 0.414
ElecMinimize: Iter:  33  F: -7009.613308903664802  |grad|_K:  1.768e-06  alpha:  8.939e-02  linmin:  4.150e-07  t[s]:    563.39
	FillingsUpdate:  mu: -0.097773462  nElectrons: 1104.000000
	SubspaceRotationAdjust: set factor to 0.351
ElecMinimize: Iter:  34  F: -7009.613363137327724  |grad|_K:  2.169e-06  alpha:  1.345e-01  linmin:  2.542e-07  t[s]:    573.89
	FillingsUpdate:  mu: -0.097907187  nElectrons: 1104.000000
	SubspaceRotationAdjust: set factor to 0.391
ElecMinimize: Iter:  35  F: -7009.613414896857648  |grad|_K:  1.478e-06  alpha:  8.533e-02  linmin:  3.980e-07  t[s]:    584.40
	FillingsUpdate:  mu: -0.097949409  nElectrons: 1104.000000
	SubspaceRotationAdjust: set factor to 0.343
ElecMinimize: Iter:  36  F: -7009.613447019462910  |grad|_K:  1.447e-06  alpha:  1.140e-01  linmin:  4.576e-07  t[s]:    594.95
	FillingsUpdate:  mu: -0.097867413  nElectrons: 1104.000000
	SubspaceRotationAdjust: set factor to 0.339
ElecMinimize: Iter:  37  F: -7009.613471768251657  |grad|_K:  1.211e-06  alpha:  9.171e-02  linmin:  2.472e-07  t[s]:    605.41
	FillingsUpdate:  mu: -0.097804956  nElectrons: 1104.000000
	SubspaceRotationAdjust: set factor to 0.337
ElecMinimize: Iter:  38  F: -7009.613492871262679  |grad|_K:  1.064e-06  alpha:  1.116e-01  linmin:  3.848e-07  t[s]:    615.97
	FillingsUpdate:  mu: -0.097808773  nElectrons: 1104.000000
	SubspaceRotationAdjust: set factor to 0.297
ElecMinimize: Iter:  39  F: -7009.613508991026720  |grad|_K:  9.808e-07  alpha:  1.105e-01  linmin:  2.793e-07  t[s]:    626.40
	FillingsUpdate:  mu: -0.097808776  nElectrons: 1104.000000
	SubspaceRotationAdjust: set factor to 0.345
ElecMinimize: Iter:  40  F: -7009.613519950838054  |grad|_K:  6.672e-07  alpha:  8.838e-02  linmin:  1.390e-07  t[s]:    636.86
	FillingsUpdate:  mu: -0.097821210  nElectrons: 1104.000000
	SubspaceRotationAdjust: set factor to 0.33
ElecMinimize: Iter:  41  F: -7009.613527508428888  |grad|_K:  7.371e-07  alpha:  1.316e-01  linmin:  1.070e-07  t[s]:    647.42
	FillingsUpdate:  mu: -0.097853092  nElectrons: 1104.000000
	SubspaceRotationAdjust: set factor to 0.359
ElecMinimize: Iter:  42  F: -7009.613534366131717  |grad|_K:  5.721e-07  alpha:  9.787e-02  linmin:  7.297e-08  t[s]:    657.91
	FillingsUpdate:  mu: -0.097843444  nElectrons: 1104.000000
	SubspaceRotationAdjust: set factor to 0.327
ElecMinimize: Iter:  43  F: -7009.613539544038758  |grad|_K:  5.579e-07  alpha:  1.227e-01  linmin:  1.245e-07  t[s]:    668.47
	FillingsUpdate:  mu: -0.097811035  nElectrons: 1104.000000
	SubspaceRotationAdjust: set factor to 0.333
ElecMinimize: Iter:  44  F: -7009.613543005715655  |grad|_K:  4.252e-07  alpha:  8.626e-02  linmin:  2.872e-08  t[s]:    678.99
	FillingsUpdate:  mu: -0.097806456  nElectrons: 1104.000000
	SubspaceRotationAdjust: set factor to 0.351
ElecMinimize: Iter:  45  F: -7009.613545678429546  |grad|_K:  3.597e-07  alpha:  1.146e-01  linmin:  4.072e-08  t[s]:    689.52
	FillingsUpdate:  mu: -0.097822581  nElectrons: 1104.000000
	SubspaceRotationAdjust: set factor to 0.344
ElecMinimize: Iter:  46  F: -7009.613547179073066  |grad|_K:  2.985e-07  alpha:  8.991e-02  linmin:  1.045e-08  t[s]:    700.04
	FillingsUpdate:  mu: -0.097824560  nElectrons: 1104.000000
	SubspaceRotationAdjust: set factor to 0.382
ElecMinimize: Iter:  47  F: -7009.613548500626166  |grad|_K:  2.782e-07  alpha:  1.150e-01  linmin:  5.254e-08  t[s]:    710.59
	FillingsUpdate:  mu: -0.097816457  nElectrons: 1104.000000
	SubspaceRotationAdjust: set factor to 0.388
ElecMinimize: Iter:  48  F: -7009.613549627776592  |grad|_K:  2.587e-07  alpha:  1.129e-01  linmin:  2.399e-08  t[s]:    721.12
	FillingsUpdate:  mu: -0.097826354  nElectrons: 1104.000000
	SubspaceRotationAdjust: set factor to 0.377
ElecMinimize: Iter:  49  F: -7009.613550305233730  |grad|_K:  1.888e-07  alpha:  7.848e-02  linmin:  5.842e-08  t[s]:    731.68
	FillingsUpdate:  mu: -0.097847940  nElectrons: 1104.000000
	SubspaceRotationAdjust: set factor to 0.313
ElecMinimize: Iter:  50  F: -7009.613550927170763  |grad|_K:  2.001e-07  alpha:  1.354e-01  linmin:  9.426e-08  t[s]:    742.19
	FillingsUpdate:  mu: -0.097849428  nElectrons: 1104.000000
	SubspaceRotationAdjust: set factor to 0.29
ElecMinimize: Iter:  51  F: -7009.613551292640295  |grad|_K:  1.227e-07  alpha:  7.078e-02  linmin:  2.184e-08  t[s]:    752.72
	FillingsUpdate:  mu: -0.097838402  nElectrons: 1104.000000
	SubspaceRotationAdjust: set factor to 0.226
ElecMinimize: Iter:  52  F: -7009.613551580433523  |grad|_K:  1.410e-07  alpha:  1.481e-01  linmin: -3.464e-08  t[s]:    763.23
	FillingsUpdate:  mu: -0.097832286  nElectrons: 1104.000000
	SubspaceRotationAdjust: set factor to 0.308
ElecMinimize: Iter:  53  F: -7009.613551844674475  |grad|_K:  9.586e-08  alpha:  1.030e-01  linmin:  2.188e-08  t[s]:    773.75
	FillingsUpdate:  mu: -0.097830896  nElectrons: 1104.000000
	SubspaceRotationAdjust: set factor to 0.284
ElecMinimize: Iter:  54  F: -7009.613551998254479  |grad|_K:  9.392e-08  alpha:  1.297e-01  linmin:  4.107e-08  t[s]:    784.24
	FillingsUpdate:  mu: -0.097827029  nElectrons: 1104.000000
	SubspaceRotationAdjust: set factor to 0.296
ElecMinimize: Iter:  55  F: -7009.613552116592473  |grad|_K:  7.689e-08  alpha:  1.040e-01  linmin:  4.508e-08  t[s]:    794.75
	FillingsUpdate:  mu: -0.097830260  nElectrons: 1104.000000
	SubspaceRotationAdjust: set factor to 0.297
ElecMinimize: Iter:  56  F: -7009.613552214295851  |grad|_K:  6.999e-08  alpha:  1.279e-01  linmin: -3.031e-08  t[s]:    805.30
	FillingsUpdate:  mu: -0.097837474  nElectrons: 1104.000000
	SubspaceRotationAdjust: set factor to 0.318
ElecMinimize: Iter:  57  F: -7009.613552279726719  |grad|_K:  6.051e-08  alpha:  1.033e-01  linmin: -1.060e-07  t[s]:    815.78
	FillingsUpdate:  mu: -0.097838777  nElectrons: 1104.000000
	SubspaceRotationAdjust: set factor to 0.361
ElecMinimize: Iter:  58  F: -7009.613552341064860  |grad|_K:  5.381e-08  alpha:  1.292e-01  linmin: -1.427e-07  t[s]:    826.30
	FillingsUpdate:  mu: -0.097834282  nElectrons: 1104.000000
	SubspaceRotationAdjust: set factor to 0.343
ElecMinimize: Iter:  59  F: -7009.613552376363259  |grad|_K:  4.766e-08  alpha:  9.444e-02  linmin: -1.401e-09  t[s]:    836.82
	FillingsUpdate:  mu: -0.097831812  nElectrons: 1104.000000
	SubspaceRotationAdjust: set factor to 0.359
ElecMinimize: Iter:  60  F: -7009.613552413781690  |grad|_K:  4.491e-08  alpha:  1.283e-01  linmin:  2.342e-07  t[s]:    847.32
	FillingsUpdate:  mu: -0.097833795  nElectrons: 1104.000000
	SubspaceRotationAdjust: set factor to 0.354
ElecMinimize: Iter:  61  F: -7009.613552439353043  |grad|_K:  3.783e-08  alpha:  9.925e-02  linmin:  1.231e-08  t[s]:    857.84
	FillingsUpdate:  mu: -0.097834623  nElectrons: 1104.000000
	SubspaceRotationAdjust: set factor to 0.373
ElecMinimize: Iter:  62  F: -7009.613552457230071  |grad|_K:  3.126e-08  alpha:  9.660e-02  linmin:  1.188e-07  t[s]:    868.32
	FillingsUpdate:  mu: -0.097835391  nElectrons: 1104.000000
	SubspaceRotationAdjust: set factor to 0.36
ElecMinimize: Iter:  63  F: -7009.613552473717391  |grad|_K:  3.281e-08  alpha:  1.319e-01  linmin:  1.073e-07  t[s]:    878.87
	FillingsUpdate:  mu: -0.097836278  nElectrons: 1104.000000
	SubspaceRotationAdjust: set factor to 0.341
ElecMinimize: Iter:  64  F: -7009.613552485661785  |grad|_K:  2.521e-08  alpha:  8.664e-02  linmin:  2.713e-08  t[s]:    889.39
	FillingsUpdate:  mu: -0.097834247  nElectrons: 1104.000000
	SubspaceRotationAdjust: set factor to 0.38
ElecMinimize: Iter:  65  F: -7009.613552495430667  |grad|_K:  2.266e-08  alpha:  1.162e-01  linmin: -5.421e-07  t[s]:    899.94
	FillingsUpdate:  mu: -0.097832470  nElectrons: 1104.000000
	SubspaceRotationAdjust: set factor to 0.345
ElecMinimize: Iter:  66  F: -7009.613552501993581  |grad|_K:  1.993e-08  alpha:  9.661e-02  linmin: -1.543e-07  t[s]:    910.45
ElecMinimize: Converged (|Delta F|<1.000000e-08 for 2 iters).
Setting wave functions to eigenvectors of Hamiltonian
Vacuum energy after initial minimize, F = -7009.613552501993581


-------- Electronic minimization -----------
	Linear fluid (dielectric constant: 64) occupying 0.793254 of unit cell:	Completed after 43 iterations at t[s]:    912.53
	FillingsUpdate:  mu: -0.097310033  nElectrons: 1104.000000
ElecMinimize: Iter:   0  F: -7009.801499708647498  |grad|_K:  4.468e-05  alpha:  1.000e+00
	Linear fluid (dielectric constant: 64) occupying 0.793731 of unit cell:	Completed after 41 iterations at t[s]:    921.73
	Linear fluid (dielectric constant: 64) occupying 0.793302 of unit cell:	Completed after 40 iterations at t[s]:    925.27
	FillingsUpdate:  mu: -0.105255156  nElectrons: 1104.000000
	SubspaceRotationAdjust: set factor to 0.311
ElecMinimize: Iter:   1  F: -7009.837908739289560  |grad|_K:  3.311e-05  alpha:  1.305e-01  linmin: -1.225e-03  t[s]:    929.63
	Linear fluid (dielectric constant: 64) occupying 0.793451 of unit cell:	Completed after 25 iterations at t[s]:    933.67
	Linear fluid (dielectric constant: 64) occupying 0.793620 of unit cell:	Completed after 26 iterations at t[s]:    936.99
	FillingsUpdate:  mu: -0.102061258  nElectrons: 1104.000000
	SubspaceRotationAdjust: set factor to 0.321
ElecMinimize: Iter:   2  F: -7009.880121641187543  |grad|_K:  3.060e-05  alpha:  2.749e-01  linmin: -1.267e-04  t[s]:    941.39
	Linear fluid (dielectric constant: 64) occupying 0.794138 of unit cell:	Completed after 30 iterations at t[s]:    945.51
	Linear fluid (dielectric constant: 64) occupying 0.794395 of unit cell:	Completed after 26 iterations at t[s]:    948.83
	FillingsUpdate:  mu: -0.087019471  nElectrons: 1104.000000
	SubspaceRotationAdjust: set factor to 0.317
ElecMinimize: Iter:   3  F: -7009.930907228736942  |grad|_K:  3.331e-05  alpha:  4.090e-01  linmin: -1.002e-04  t[s]:    953.23
	Linear fluid (dielectric constant: 64) occupying 0.795332 of unit cell:	Completed after 36 iterations at t[s]:    957.41
	Linear fluid (dielectric constant: 64) occupying 0.794813 of unit cell:	Completed after 30 iterations at t[s]:    960.80
	FillingsUpdate:  mu: -0.087341879  nElectrons: 1104.000000
	SubspaceRotationAdjust: set factor to 0.253
ElecMinimize: Iter:   4  F: -7009.956878127221898  |grad|_K:  2.506e-05  alpha:  1.774e-01  linmin:  3.284e-06  t[s]:    965.15
	Linear fluid (dielectric constant: 64) occupying 0.795004 of unit cell:	Completed after 28 iterations at t[s]:    969.20
	Linear fluid (dielectric constant: 64) occupying 0.794999 of unit cell:	Completed after 10 iterations at t[s]:    972.29
	FillingsUpdate:  mu: -0.089973163  nElectrons: 1104.000000
	SubspaceRotationAdjust: set factor to 0.2
ElecMinimize: Iter:   5  F: -7009.970797140341347  |grad|_K:  2.156e-05  alpha:  1.719e-01  linmin: -2.762e-06  t[s]:    976.62
	Linear fluid (dielectric constant: 64) occupying 0.795078 of unit cell:	Completed after 24 iterations at t[s]:    980.63
	Linear fluid (dielectric constant: 64) occupying 0.795130 of unit cell:	Completed after 24 iterations at t[s]:    983.91
	FillingsUpdate:  mu: -0.087288664  nElectrons: 1104.000000
	SubspaceRotationAdjust: set factor to 0.234
ElecMinimize: Iter:   6  F: -7009.991961406292830  |grad|_K:  1.474e-05  alpha:  3.499e-01  linmin: -5.852e-05  t[s]:    988.28
	Linear fluid (dielectric constant: 64) occupying 0.795073 of unit cell:	Completed after 26 iterations at t[s]:    992.31
	Linear fluid (dielectric constant: 64) occupying 0.795095 of unit cell:	Completed after 18 iterations at t[s]:    995.50
	FillingsUpdate:  mu: -0.085801667  nElectrons: 1104.000000
	SubspaceRotationAdjust: set factor to 0.216
ElecMinimize: Iter:   7  F: -7009.998934799736162  |grad|_K:  1.365e-05  alpha:  2.454e-01  linmin: -4.385e-06  t[s]:    999.89
	Linear fluid (dielectric constant: 64) occupying 0.795004 of unit cell:	Completed after 21 iterations at t[s]:   1003.86
	Linear fluid (dielectric constant: 64) occupying 0.794992 of unit cell:	Completed after 7 iterations at t[s]:   1006.90
	FillingsUpdate:  mu: -0.086992995  nElectrons: 1104.000000
	SubspaceRotationAdjust: set factor to 0.209
ElecMinimize: Iter:   8  F: -7010.005526098081646  |grad|_K:  1.051e-05  alpha:  2.738e-01  linmin: -8.758e-06  t[s]:   1011.19
	Linear fluid (dielectric constant: 64) occupying 0.794916 of unit cell:	Completed after 24 iterations at t[s]:   1015.19
	Linear fluid (dielectric constant: 64) occupying 0.794929 of unit cell:	Completed after 12 iterations at t[s]:   1018.30
	FillingsUpdate:  mu: -0.086296372  nElectrons: 1104.000000
	SubspaceRotationAdjust: set factor to 0.199
ElecMinimize: Iter:   9  F: -7010.008801659814708  |grad|_K:  9.553e-06  alpha:  2.292e-01  linmin: -6.300e-06  t[s]:   1022.63
	Linear fluid (dielectric constant: 64) occupying 0.794873 of unit cell:	Completed after 25 iterations at t[s]:   1026.65
	Linear fluid (dielectric constant: 64) occupying 0.794857 of unit cell:	Completed after 16 iterations at t[s]:   1032.90
	FillingsUpdate:  mu: -0.084654122  nElectrons: 1104.000000
	SubspaceRotationAdjust: set factor to 0.164
ElecMinimize: Iter:  10  F: -7010.012224099801642  |grad|_K:  6.712e-06  alpha:  2.898e-01  linmin: -1.688e-05  t[s]:   1037.98
	Linear fluid (dielectric constant: 64) occupying 0.794815 of unit cell:	Completed after 21 iterations at t[s]:   1046.55
	Linear fluid (dielectric constant: 64) occupying 0.794800 of unit cell:	Completed after 14 iterations at t[s]:   1050.83
	FillingsUpdate:  mu: -0.085233990  nElectrons: 1104.000000
	SubspaceRotationAdjust: set factor to 0.161
ElecMinimize: Iter:  11  F: -7010.014504540799862  |grad|_K:  6.851e-06  alpha:  3.900e-01  linmin: -7.768e-06  t[s]:   1055.16
	Linear fluid (dielectric constant: 64) occupying 0.794754 of unit cell:	Completed after 25 iterations at t[s]:   1059.17
	Linear fluid (dielectric constant: 64) occupying 0.794774 of unit cell:	Completed after 18 iterations at t[s]:   1062.37
	FillingsUpdate:  mu: -0.084443795  nElectrons: 1104.000000
	SubspaceRotationAdjust: set factor to 0.15
ElecMinimize: Iter:  12  F: -7010.015912523086627  |grad|_K:  5.095e-06  alpha:  2.320e-01  linmin: -5.591e-07  t[s]:   1066.69
	Linear fluid (dielectric constant: 64) occupying 0.794767 of unit cell:	Completed after 17 iterations at t[s]:   1070.59
	Linear fluid (dielectric constant: 64) occupying 0.794760 of unit cell:	Completed after 17 iterations at t[s]:   1073.80
	FillingsUpdate:  mu: -0.083761100  nElectrons: 1104.000000
	SubspaceRotationAdjust: set factor to 0.154
ElecMinimize: Iter:  13  F: -7010.017360554807055  |grad|_K:  4.637e-06  alpha:  4.328e-01  linmin: -1.691e-08  t[s]:   1078.11
	Linear fluid (dielectric constant: 64) occupying 0.794754 of unit cell:	Completed after 20 iterations at t[s]:   1082.04
	Linear fluid (dielectric constant: 64) occupying 0.794757 of unit cell:	Completed after 12 iterations at t[s]:   1085.18
	FillingsUpdate:  mu: -0.084638885  nElectrons: 1104.000000
	SubspaceRotationAdjust: set factor to 0.157
ElecMinimize: Iter:  14  F: -7010.018116048169759  |grad|_K:  3.931e-06  alpha:  2.721e-01  linmin:  2.800e-07  t[s]:   1089.52
	Linear fluid (dielectric constant: 64) occupying 0.794764 of unit cell:	Completed after 18 iterations at t[s]:   1093.44
	Linear fluid (dielectric constant: 64) occupying 0.794767 of unit cell:	Completed after 14 iterations at t[s]:   1096.60
	FillingsUpdate:  mu: -0.084307507  nElectrons: 1104.000000
	SubspaceRotationAdjust: set factor to 0.153
ElecMinimize: Iter:  15  F: -7010.018921488696833  |grad|_K:  3.595e-06  alpha:  4.044e-01  linmin: -4.863e-07  t[s]:   1100.93
	Linear fluid (dielectric constant: 64) occupying 0.794774 of unit cell:	Completed after 20 iterations at t[s]:   1104.88
	Linear fluid (dielectric constant: 64) occupying 0.794772 of unit cell:	Completed after 14 iterations at t[s]:   1108.01
	FillingsUpdate:  mu: -0.083700273  nElectrons: 1104.000000
	SubspaceRotationAdjust: set factor to 0.151
ElecMinimize: Iter:  16  F: -7010.019333786610332  |grad|_K:  2.705e-06  alpha:  2.473e-01  linmin:  1.257e-06  t[s]:   1112.33
	Linear fluid (dielectric constant: 64) occupying 0.794770 of unit cell:	Completed after 13 iterations at t[s]:   1116.17
	Linear fluid (dielectric constant: 64) occupying 0.794769 of unit cell:	Completed after 13 iterations at t[s]:   1119.29
	FillingsUpdate:  mu: -0.083895908  nElectrons: 1104.000000
	SubspaceRotationAdjust: set factor to 0.151
ElecMinimize: Iter:  17  F: -7010.019756315949962  |grad|_K:  2.595e-06  alpha:  4.484e-01  linmin:  1.856e-06  t[s]:   1123.61
	Linear fluid (dielectric constant: 64) occupying 0.794764 of unit cell:	Completed after 18 iterations at t[s]:   1127.52
	Linear fluid (dielectric constant: 64) occupying 0.794766 of unit cell:	Completed after 12 iterations at t[s]:   1130.63
	FillingsUpdate:  mu: -0.083798943  nElectrons: 1104.000000
	SubspaceRotationAdjust: set factor to 0.141
ElecMinimize: Iter:  18  F: -7010.019987056173704  |grad|_K:  2.032e-06  alpha:  2.662e-01  linmin:  2.541e-06  t[s]:   1134.95
	Linear fluid (dielectric constant: 64) occupying 0.794763 of unit cell:	Completed after 10 iterations at t[s]:   1138.74
	Linear fluid (dielectric constant: 64) occupying 0.794763 of unit cell:	Completed after 4 iterations at t[s]:   1141.75
	FillingsUpdate:  mu: -0.083663858  nElectrons: 1104.000000
	SubspaceRotationAdjust: set factor to 0.146
ElecMinimize: Iter:  19  F: -7010.020153366497652  |grad|_K:  1.644e-06  alpha:  3.128e-01  linmin: -1.433e-06  t[s]:   1146.09
	Linear fluid (dielectric constant: 64) occupying 0.794763 of unit cell:	Completed after 11 iterations at t[s]:   1149.90
	Linear fluid (dielectric constant: 64) occupying 0.794763 of unit cell:	Completed after 3 iterations at t[s]:   1152.89
	FillingsUpdate:  mu: -0.083631420  nElectrons: 1104.000000
	SubspaceRotationAdjust: set factor to 0.146
ElecMinimize: Iter:  20  F: -7010.020276049496715  |grad|_K:  1.415e-06  alpha:  3.513e-01  linmin: -1.592e-05  t[s]:   1157.21
	Linear fluid (dielectric constant: 64) occupying 0.794767 of unit cell:	Completed after 12 iterations at t[s]:   1161.05
	Linear fluid (dielectric constant: 64) occupying 0.794767 of unit cell:	Completed after 4 iterations at t[s]:   1164.05
	FillingsUpdate:  mu: -0.083630850  nElectrons: 1104.000000
	SubspaceRotationAdjust: set factor to 0.143
ElecMinimize: Iter:  21  F: -7010.020352372333036  |grad|_K:  1.136e-06  alpha:  2.935e-01  linmin:  1.744e-06  t[s]:   1168.38
	Linear fluid (dielectric constant: 64) occupying 0.794772 of unit cell:	Completed after 10 iterations at t[s]:   1172.19
	Linear fluid (dielectric constant: 64) occupying 0.794773 of unit cell:	Completed after 2 iterations at t[s]:   1175.15
	FillingsUpdate:  mu: -0.083526044  nElectrons: 1104.000000
	SubspaceRotationAdjust: set factor to 0.142
ElecMinimize: Iter:  22  F: -7010.020406170320712  |grad|_K:  9.083e-07  alpha:  3.236e-01  linmin: -2.250e-05  t[s]:   1179.48
	Linear fluid (dielectric constant: 64) occupying 0.794779 of unit cell:	Completed after 10 iterations at t[s]:   1183.28
	Linear fluid (dielectric constant: 64) occupying 0.794779 of unit cell:	Completed after 0 iterations at t[s]:   1186.22
	FillingsUpdate:  mu: -0.083478993  nElectrons: 1104.000000
	SubspaceRotationAdjust: set factor to 0.142
ElecMinimize: Iter:  23  F: -7010.020441334452698  |grad|_K:  8.277e-07  alpha:  3.252e-01  linmin: -3.040e-06  t[s]:   1190.49
	Linear fluid (dielectric constant: 64) occupying 0.794785 of unit cell:	Completed after 6 iterations at t[s]:   1194.23
	Linear fluid (dielectric constant: 64) occupying 0.794785 of unit cell:	Completed after 0 iterations at t[s]:   1197.15
	FillingsUpdate:  mu: -0.083565126  nElectrons: 1104.000000
	SubspaceRotationAdjust: set factor to 0.14
ElecMinimize: Iter:  24  F: -7010.020468343979701  |grad|_K:  6.685e-07  alpha:  3.048e-01  linmin:  2.155e-05  t[s]:   1201.46
	Linear fluid (dielectric constant: 64) occupying 0.794789 of unit cell:	Completed after 5 iterations at t[s]:   1205.20
	Linear fluid (dielectric constant: 64) occupying 0.794790 of unit cell:	Completed after 0 iterations at t[s]:   1208.11
	FillingsUpdate:  mu: -0.083464547  nElectrons: 1104.000000
	SubspaceRotationAdjust: set factor to 0.15
ElecMinimize: Iter:  25  F: -7010.020486410468038  |grad|_K:  5.374e-07  alpha:  3.198e-01  linmin: -3.704e-05  t[s]:   1212.40
	Linear fluid (dielectric constant: 64) occupying 0.794794 of unit cell:	Completed after 10 iterations at t[s]:   1216.22
	Linear fluid (dielectric constant: 64) occupying 0.794794 of unit cell:	Completed after 0 iterations at t[s]:   1219.14
	FillingsUpdate:  mu: -0.083434105  nElectrons: 1104.000000
	SubspaceRotationAdjust: set factor to 0.146
ElecMinimize: Iter:  26  F: -7010.020499080475929  |grad|_K:  4.590e-07  alpha:  3.249e-01  linmin: -4.927e-05  t[s]:   1223.44
	Linear fluid (dielectric constant: 64) occupying 0.794797 of unit cell:	Completed after 4 iterations at t[s]:   1227.16
	Linear fluid (dielectric constant: 64) occupying 0.794797 of unit cell:	Completed after 1 iterations at t[s]:   1230.11
	FillingsUpdate:  mu: -0.083484994  nElectrons: 1104.000000
	SubspaceRotationAdjust: set factor to 0.134
ElecMinimize: Iter:  27  F: -7010.020507226595328  |grad|_K:  4.297e-07  alpha:  2.846e-01  linmin:  2.098e-05  t[s]:   1234.40
	Linear fluid (dielectric constant: 64) occupying 0.794801 of unit cell:	Completed after 4 iterations at t[s]:   1238.13
	Linear fluid (dielectric constant: 64) occupying 0.794801 of unit cell:	Completed after 0 iterations at t[s]:   1241.04
	FillingsUpdate:  mu: -0.083422891  nElectrons: 1104.000000
	SubspaceRotationAdjust: set factor to 0.155
ElecMinimize: Iter:  28  F: -7010.020514377952168  |grad|_K:  2.819e-07  alpha:  3.101e-01  linmin: -4.876e-05  t[s]:   1245.32
	Linear fluid (dielectric constant: 64) occupying 0.794804 of unit cell:	Completed after 4 iterations at t[s]:   1249.05
	Linear fluid (dielectric constant: 64) occupying 0.794805 of unit cell:	Completed after 0 iterations at t[s]:   1251.96
	FillingsUpdate:  mu: -0.083416277  nElectrons: 1104.000000
	SubspaceRotationAdjust: set factor to 0.165
ElecMinimize: Iter:  29  F: -7010.020518897489637  |grad|_K:  2.506e-07  alpha:  3.951e-01  linmin: -7.113e-05  t[s]:   1256.24
	Linear fluid (dielectric constant: 64) occupying 0.794809 of unit cell:	Completed after 4 iterations at t[s]:   1259.97
	Linear fluid (dielectric constant: 64) occupying 0.794808 of unit cell:	Completed after 2 iterations at t[s]:   1262.92
	FillingsUpdate:  mu: -0.083404738  nElectrons: 1104.000000
	SubspaceRotationAdjust: set factor to 0.169
ElecMinimize: Iter:  30  F: -7010.020521461686258  |grad|_K:  2.240e-07  alpha:  2.924e-01  linmin: -1.045e-05  t[s]:   1267.22
	Linear fluid (dielectric constant: 64) occupying 0.794810 of unit cell:	Completed after 4 iterations at t[s]:   1270.96
	Linear fluid (dielectric constant: 64) occupying 0.794810 of unit cell:	Completed after 0 iterations at t[s]:   1273.87
	FillingsUpdate:  mu: -0.083382660  nElectrons: 1104.000000
	SubspaceRotationAdjust: set factor to 0.162
ElecMinimize: Iter:  31  F: -7010.020523365574263  |grad|_K:  1.821e-07  alpha:  2.871e-01  linmin: -2.642e-05  t[s]:   1278.13
	Linear fluid (dielectric constant: 64) occupying 0.794812 of unit cell:	Completed after 3 iterations at t[s]:   1281.82
	Linear fluid (dielectric constant: 64) occupying 0.794813 of unit cell:	Completed after 0 iterations at t[s]:   1284.73
	FillingsUpdate:  mu: -0.083380395  nElectrons: 1104.000000
	SubspaceRotationAdjust: set factor to 0.182
ElecMinimize: Iter:  32  F: -7010.020524868866232  |grad|_K:  1.341e-07  alpha:  3.208e-01  linmin: -3.364e-05  t[s]:   1289.02
	Linear fluid (dielectric constant: 64) occupying 0.794814 of unit cell:	Completed after 0 iterations at t[s]:   1292.66
	Linear fluid (dielectric constant: 64) occupying 0.794815 of unit cell:	Completed after 3 iterations at t[s]:   1295.59
	FillingsUpdate:  mu: -0.083396232  nElectrons: 1104.000000
	SubspaceRotationAdjust: set factor to 0.187
ElecMinimize: Iter:  33  F: -7010.020525873256702  |grad|_K:  1.685e-07  alpha:  6.773e-01  linmin:  7.055e-05  t[s]:   1299.91
	Linear fluid (dielectric constant: 64) occupying 0.794819 of unit cell:	Completed after 4 iterations at t[s]:   1303.62
	Linear fluid (dielectric constant: 64) occupying 0.794816 of unit cell:	Completed after 4 iterations at t[s]:   1306.61
	FillingsUpdate:  mu: -0.083359802  nElectrons: 1104.000000
	SubspaceRotationAdjust: set factor to 0.206
ElecMinimize: Iter:  34  F: -7010.020526191479803  |grad|_K:  1.497e-07  alpha:  2.106e-01  linmin:  3.239e-06  t[s]:   1310.93
	Linear fluid (dielectric constant: 64) occupying 0.794817 of unit cell:	Completed after 1 iterations at t[s]:   1314.59
	Linear fluid (dielectric constant: 64) occupying 0.794817 of unit cell:	Completed after 0 iterations at t[s]:   1317.49
	FillingsUpdate:  mu: -0.083356876  nElectrons: 1104.000000
	SubspaceRotationAdjust: set factor to 0.233
ElecMinimize: Iter:  35  F: -7010.020526995987893  |grad|_K:  1.124e-07  alpha:  2.709e-01  linmin: -2.415e-05  t[s]:   1321.78
	Linear fluid (dielectric constant: 64) occupying 0.794817 of unit cell:	Completed after 3 iterations at t[s]:   1325.48
	Linear fluid (dielectric constant: 64) occupying 0.794817 of unit cell:	Completed after 0 iterations at t[s]:   1328.38
	FillingsUpdate:  mu: -0.083356235  nElectrons: 1104.000000
	SubspaceRotationAdjust: set factor to 0.228
ElecMinimize: Iter:  36  F: -7010.020527207228042  |grad|_K:  1.326e-07  alpha:  1.649e-01  linmin: -1.885e-06  t[s]:   1332.67
	Linear fluid (dielectric constant: 64) occupying 0.794818 of unit cell:	Completed after 0 iterations at t[s]:   1336.31
	Linear fluid (dielectric constant: 64) occupying 0.794818 of unit cell:	Completed after 2 iterations at t[s]:   1339.23
	FillingsUpdate:  mu: -0.083356342  nElectrons: 1104.000000
	SubspaceRotationAdjust: set factor to 0.209
ElecMinimize: Iter:  37  F: -7010.020527297393528  |grad|_K:  1.424e-07  alpha:  2.305e-01  linmin:  5.856e-05  t[s]:   1343.52
	Linear fluid (dielectric constant: 64) occupying 0.794818 of unit cell:	Completed after 2 iterations at t[s]:   1347.21
	Linear fluid (dielectric constant: 64) occupying 0.794818 of unit cell:	Completed after 1 iterations at t[s]:   1350.11
ElecMinimize: 	Step increased F by 1.211447e-08, reducing alpha to 5.222568e-03.
	Linear fluid (dielectric constant: 64) occupying 0.794818 of unit cell:	Completed after 0 iterations at t[s]:   1359.68
	FillingsUpdate:  mu: -0.083360011  nElectrons: 1104.000000
	SubspaceRotationAdjust: set factor to 0.243
ElecMinimize: Iter:  38  F: -7010.020527298604065  |grad|_K:  1.389e-07  alpha:  5.223e-03  linmin: -4.498e-07  t[s]:   1365.16
	Linear fluid (dielectric constant: 64) occupying 0.794818 of unit cell:	Completed after 0 iterations at t[s]:   1368.79
ElecMinimize: 	Predicted alpha/alphaT>3.000000, increasing alphaT to 1.566771e-02.
	Linear fluid (dielectric constant: 64) occupying 0.794818 of unit cell:	Completed after 0 iterations at t[s]:   1371.65
ElecMinimize: 	Predicted alpha/alphaT>3.000000, increasing alphaT to 4.700312e-02.
	Linear fluid (dielectric constant: 64) occupying 0.794818 of unit cell:	Completed after 0 iterations at t[s]:   1374.52
ElecMinimize: 	Predicted alpha/alphaT>3.000000, increasing alphaT to 1.410093e-01.
	Linear fluid (dielectric constant: 64) occupying 0.794817 of unit cell:	Completed after 2 iterations at t[s]:   1377.43
	FillingsUpdate:  mu: -0.083352414  nElectrons: 1104.000000
	SubspaceRotationAdjust: set factor to 0.224
ElecMinimize: Iter:  39  F: -7010.020527419200334  |grad|_K:  1.340e-07  alpha:  2.047e-01  linmin:  6.363e-05  t[s]:   1381.74
	Linear fluid (dielectric constant: 64) occupying 0.794817 of unit cell:	Completed after 0 iterations at t[s]:   1385.39
	Linear fluid (dielectric constant: 64) occupying 0.794817 of unit cell:	Completed after 0 iterations at t[s]:   1388.25
	FillingsUpdate:  mu: -0.083352357  nElectrons: 1104.000000
	SubspaceRotationAdjust: set factor to 0.274
ElecMinimize: Iter:  40  F: -7010.020527436990051  |grad|_K:  1.361e-07  alpha:  5.774e-02  linmin: -1.853e-09  t[s]:   1392.53
	Linear fluid (dielectric constant: 64) occupying 0.794817 of unit cell:	Completed after 0 iterations at t[s]:   1396.20
ElecMinimize: 	Predicted alpha/alphaT>3.000000, increasing alphaT to 1.732239e-01.
	Linear fluid (dielectric constant: 64) occupying 0.794817 of unit cell:	Completed after 3 iterations at t[s]:   1399.11
	Linear fluid (dielectric constant: 64) occupying 0.794817 of unit cell:	Completed after 0 iterations at t[s]:   1402.02
	FillingsUpdate:  mu: -0.083345843  nElectrons: 1104.000000
	SubspaceRotationAdjust: set factor to 0.241
ElecMinimize: Iter:  41  F: -7010.020527709986709  |grad|_K:  1.275e-07  alpha:  1.075e-01  linmin:  2.087e-05  t[s]:   1406.30
	Linear fluid (dielectric constant: 64) occupying 0.794816 of unit cell:	Completed after 0 iterations at t[s]:   1409.96
	Linear fluid (dielectric constant: 64) occupying 0.794816 of unit cell:	Completed after 0 iterations at t[s]:   1412.83
	FillingsUpdate:  mu: -0.083345511  nElectrons: 1104.000000
	SubspaceRotationAdjust: set factor to 0.239
ElecMinimize: Iter:  42  F: -7010.020527969874820  |grad|_K:  1.182e-07  alpha:  1.666e-01  linmin:  4.331e-08  t[s]:   1417.10
	Linear fluid (dielectric constant: 64) occupying 0.794815 of unit cell:	Completed after 3 iterations at t[s]:   1420.79
	Linear fluid (dielectric constant: 64) occupying 0.794816 of unit cell:	Completed after 1 iterations at t[s]:   1423.74
ElecMinimize: 	Step increased F by 9.901942e-08, reducing alpha to 4.046369e-03.
	Linear fluid (dielectric constant: 64) occupying 0.794816 of unit cell:	Completed after 0 iterations at t[s]:   1430.60
ElecMinimize: 	Step increased F by 2.682100e-09, reducing alpha to 4.046369e-04.
	Linear fluid (dielectric constant: 64) occupying 0.794816 of unit cell:	Completed after 0 iterations at t[s]:   1437.44
	FillingsUpdate:  mu: -0.083365558  nElectrons: 1104.000000
	SubspaceRotationAdjust: set factor to 0.182
ElecMinimize: Iter:  43  F: -7010.020527976091216  |grad|_K:  1.317e-07  alpha:  4.046e-04  linmin:  4.196e-05  t[s]:   1441.72
	Linear fluid (dielectric constant: 64) occupying 0.794816 of unit cell:	Completed after 0 iterations at t[s]:   1445.36
ElecMinimize: 	Wrong curvature in test step, increasing alphaT to 1.213911e-03.
	Linear fluid (dielectric constant: 64) occupying 0.794816 of unit cell:	Completed after 0 iterations at t[s]:   1446.77
	FillingsUpdate:  mu: -0.083365557  nElectrons: 1104.000000
	SubspaceRotationAdjust: set factor to 0.27
ElecMinimize: Iter:  44  F: -7010.020527976711492  |grad|_K:  1.254e-07  alpha: -4.910e-03  linmin: -1.963e-05  t[s]:   1451.07
ElecMinimize: Converged (|Delta F|<1.000000e-08 for 2 iters).
Setting wave functions to eigenvectors of Hamiltonian
Single-point solvation energy estimate, DeltaF = -0.406975474717910

# Ionic positions in cartesian coordinates:
ion Ni  32.181130469222218  -0.000028463333331   0.611327655000000 0
ion Ni   5.363545148055554  -0.000028463333331   5.974853827499990 0
ion Ni  32.181130469222218  -5.363543250499998   5.974853827499990 0
ion Ni   5.363545148055554  -5.363543250499998   0.611327655000000 0
ion Ni  32.181130469222218 -10.727058037666666   0.611327655000000 0
ion Ni  32.181130469222218 -21.454087611999999   0.611327655000000 0
ion Ni   5.363545148055554 -21.454087611999999   5.974853827499990 0
ion Ni   5.363545148055554 -10.727058037666666   5.974853827499990 0
ion Ni  32.181130469222218 -16.090572824833334   5.974853827499990 0
ion Ni  32.181130469222218 -26.817602399166638   5.974853827499990 0
ion Ni   5.363545148055554 -26.817602399166638   0.611327655000000 0
ion Ni   5.363545148055554 -16.090572824833334   0.611327655000000 0
ion Ni  10.727071320555538  -0.000028463333331   0.611327655000000 0
ion Ni  21.454100894888885  -0.000028463333331   0.611327655000000 0
ion Ni  21.454100894888885  -5.363543250499998   5.974853827499990 0
ion Ni  10.727071320555538  -5.363543250499998   5.974853827499990 0
ion Ni  16.090574722388887  -5.363543250499998   0.611327655000000 0
ion Ni  26.817604296722195  -5.363543250499998   0.611327655000000 0
ion Ni  26.817604296722195  -0.000028463333331   5.974853827499990 0
ion Ni  16.090574722388887  -0.000028463333331   5.974853827499990 0
ion Ni  10.727071320555538 -10.727058037666666   0.611327655000000 0
ion Ni  21.454100894888885 -21.454087611999999   0.611327655000000 0
ion Ni  26.817604296722195 -21.454087611999999   5.974853827499990 0
ion Ni  16.090574722388887 -10.727058037666666   5.974853827499990 0
ion Ni  21.454100894888885 -16.090572824833334   5.974853827499990 0
ion Ni  10.727071320555538 -26.817602399166638   5.974853827499990 0
ion Ni  16.090574722388887 -26.817602399166638   0.611327655000000 0
ion Ni  26.817604296722195 -16.090572824833334   0.611327655000000 0
ion Ni  10.727071320555538 -21.454087611999999   0.611327655000000 0
ion Ni  21.454100894888885 -10.727058037666666   0.611327655000000 0
ion Ni  26.817604296722195 -10.727058037666666   5.974853827499990 0
ion Ni  16.090574722388887 -21.454087611999999   5.974853827499990 0
ion Ni  21.454100894888885 -26.817602399166638   5.974853827499990 0
ion Ni  10.727071320555538 -16.090572824833334   5.974853827499990 0
ion Ni  16.090574722388887 -16.090572824833334   0.611327655000000 0
ion Ni  26.817604296722195 -26.817602399166638   0.611327655000000 0
ion S   4.232269668888878  -4.232271970733331   7.106125994099992 0
ion S  27.948891161222193 -27.948885064266641   4.843581660899996 0
ion S   1.131317225388885 -27.948885064266641   1.742599821599998 0
ion S   9.595784456055538  -4.232271970733331  10.207107833399988 0
ion S  27.948891161222193  -9.595786757899997  10.207107833399988 0
ion S   4.232269668888878  -1.131311128433331   1.742599821599998 0
ion S   9.595784456055538  -1.131311128433331   4.843581660899996 0
ion S   1.131317225388885  -9.595786757899997   7.106125994099992 0
ion S   4.232269668888878 -14.959301545066651   7.106125994099992 0
ion S  27.948891161222193 -17.221855489933304   4.843581660899996 0
ion S   1.131317225388885 -17.221855489933304   1.742599821599998 0
ion S   9.595784456055538 -14.959301545066651  10.207107833399988 0
ion S  27.948891161222193 -20.322816332233330  10.207107833399988 0
ion S   4.232269668888878 -22.585370277100001   1.742599821599998 0
ion S   9.595784456055538 -22.585370277100001   4.843581660899996 0
ion S   1.131317225388885 -20.322816332233330   7.106125994099992 0
ion S  14.959299243222206  -4.232271970733330   7.106125994099992 0
ion S  17.221861586888888 -27.948885064266641   4.843581660899996 0
ion S  17.221861586888888  -9.595786757899997  10.207107833399988 0
ion S  14.959299243222206  -1.131311128433331   1.742599821599998 0
ion S  20.322814030388887  -1.131311128433331   4.843581660899996 0
ion S  22.585376374055553  -9.595786757899997   7.106125994099992 0
ion S  22.585376374055553 -27.948885064266641   1.742599821599998 0
ion S  20.322814030388887  -4.232271970733330  10.207107833399988 0
ion S   4.232269668888878 -25.686331119399973   7.106125994099992 0
ion S  27.948891161222193  -6.494825915599991   4.843581660899996 0
ion S   1.131317225388885  -6.494825915599991   1.742599821599998 0
ion S   9.595784456055538 -25.686331119399973  10.207107833399988 0
ion S  27.948891161222193 -31.049845906566667  10.207107833399988 0
ion S   4.232269668888878 -11.858340702766652   1.742599821599998 0
ion S   9.595784456055538 -11.858340702766652   4.843581660899996 0
ion S   1.131317225388885 -31.049845906566667   7.106125994099992 0
ion S  25.686328817555527  -4.232271970733330   7.106125994099992 0
ion S   6.494832012555547 -27.948885064266641   4.843581660899996 0
ion S   6.494832012555547  -9.595786757899997  10.207107833399988 0
ion S  25.686328817555527  -1.131311128433331   1.742599821599998 0
ion S  31.049843604722220  -1.131311128433331   4.843581660899996 0
ion S  11.858346799722208  -9.595786757899997   7.106125994099992 0
ion S  11.858346799722208 -27.948885064266641   1.742599821599998 0
ion S  31.049843604722220  -4.232271970733330  10.207107833399988 0
ion S  14.959299243222206 -14.959301545066651   7.106125994099992 0
ion S  17.221861586888888 -17.221855489933304   4.843581660899996 0
ion S  22.585376374055553 -17.221855489933304   1.742599821599998 0
ion S  20.322814030388887 -14.959301545066651  10.207107833399988 0
ion S  17.221861586888888 -20.322816332233330  10.207107833399988 0
ion S  14.959299243222206 -22.585370277100001   1.742599821599998 0
ion S  20.322814030388887 -22.585370277100001   4.843581660899996 0
ion S  22.585376374055553 -20.322816332233330   7.106125994099992 0
ion S  14.959299243222206 -25.686331119399973   7.106125994099992 0
ion S  17.221861586888888  -6.494825915599991   4.843581660899996 0
ion S  22.585376374055553  -6.494825915599991   1.742599821599998 0
ion S  20.322814030388887 -25.686331119399973  10.207107833399988 0
ion S  17.221861586888888 -31.049845906566667  10.207107833399988 0
ion S  14.959299243222206 -11.858340702766652   1.742599821599998 0
ion S  20.322814030388887 -11.858340702766652   4.843581660899996 0
ion S  22.585376374055553 -31.049845906566667   7.106125994099992 0
ion S  25.686328817555527 -14.959301545066651   7.106125994099992 0
ion S   6.494832012555547 -17.221855489933304   4.843581660899996 0
ion S  11.858346799722208 -17.221855489933304   1.742599821599998 0
ion S  31.049843604722220 -14.959301545066651  10.207107833399988 0
ion S   6.494832012555547 -20.322816332233330  10.207107833399988 0
ion S  25.686328817555527 -22.585370277100001   1.742599821599998 0
ion S  31.049843604722220 -22.585370277100001   4.843581660899996 0
ion S  11.858346799722208 -20.322816332233330   7.106125994099992 0
ion S  25.686328817555527 -25.686331119399973   7.106125994099992 0
ion S   6.494832012555547  -6.494825915599991   4.843581660899996 0
ion S  11.858346799722208  -6.494825915599991   1.742599821599998 0
ion S  31.049843604722220 -25.686331119399973  10.207107833399988 0
ion S   6.494832012555547 -31.049845906566667  10.207107833399988 0
ion S  25.686328817555527 -11.858340702766652   1.742599821599998 0
ion S  31.049843604722220 -11.858340702766652   4.843581660899996 0
ion S  11.858346799722208 -31.049845906566667   7.106125994099992 0
ion S  14.149138843365504 -19.618348355673071  12.117584056452818 1
ion Na  14.907521373405887 -13.983350593467884  12.347309398584880 1
ion Na  25.751833568037299 -26.441328369171501  12.259114181343945 1

# Forces in Cartesian coordinates:
force Ni   0.022521208861002   0.009926635986987   0.035169991005902 0
force Ni  -0.002827873343981  -0.000330635054464   0.007104279960527 0
force Ni   0.002809543203944  -0.000445172982975   0.007142703956323 0
force Ni  -0.022572974430913   0.009968601791003   0.035203166262490 0
force Ni   0.022570023465926   0.009936703466738   0.035201886378173 0
force Ni   0.022557470139965   0.009902153516387   0.035137902681700 0
force Ni  -0.002640062304645  -0.000269468359622   0.007246131689528 0
force Ni  -0.002843138588106  -0.000469515282892   0.007020797824784 0
force Ni   0.002808271583698  -0.000432351637712   0.007099706539114 0
force Ni   0.002834211142813  -0.000372553686492   0.007030490791895 0
force Ni  -0.022487748804993   0.009932939527838   0.035120270173973 0
force Ni  -0.022546095341951   0.009917502058674   0.035098422789329 0
force Ni   0.022533726974192   0.009949064574190   0.035149700830731 0
force Ni   0.022473929595231   0.009898773014829   0.035164789001763 0
force Ni   0.002805471820039  -0.000535848130958   0.007090254464787 0
force Ni   0.002845542064369  -0.000352554661432   0.007088430595704 0
force Ni  -0.022494815485092   0.009921175688641   0.035182119314219 0
force Ni  -0.022526695944993   0.009917851840135   0.035126892357341 0
force Ni  -0.002763841516916  -0.000496361165078   0.006879310190620 0
force Ni  -0.002920095123040  -0.000283023686339   0.007218977827592 0
force Ni   0.022502020126438   0.009943951366334   0.035135548611775 0
force Ni   0.022414212667807   0.010184058321952   0.034713842229513 0
force Ni  -0.001742231200932  -0.000296291891263   0.007994116501859 0
force Ni  -0.002467708145757   0.000148398276473   0.006889364881049 0
force Ni   0.002827815549037  -0.000069942735827   0.007021693884600 0
force Ni   0.002887001378854  -0.000003921885896   0.007031285085462 0
force Ni  -0.022479357512256   0.009909316631904   0.035041361316863 0
force Ni  -0.022453722115847   0.009900299458493   0.035080981202617 0
force Ni   0.022651909198327   0.010089185529803   0.034846118944469 0
force Ni   0.022462461397505   0.009933795105818   0.035138088633993 0
force Ni  -0.002957131813709  -0.000388014261461   0.007038265828557 0
force Ni  -0.004074635457422  -0.002904280037610  -0.001116238165109 0
force Ni   0.002697292586253  -0.001290048475989   0.006685594618562 0
force Ni   0.002056023639050  -0.000989538532586   0.007296168023504 0
force Ni  -0.022784403496424   0.009911310663386   0.034648356928484 0
force Ni  -0.022432735404770   0.009958187402240   0.035310190161112 0
force S  -0.005537701789554   0.004313946598644   0.002256447238709 0
force S   0.002319256581784   0.000907893658197  -0.014394734789389 0
force S  -0.000988251416748  -0.007492516638530  -0.013436336278756 0
force S  -0.000697983455859  -0.007882523738232  -0.016852395475916 0
force S   0.000806665118267  -0.007832923196961  -0.017043799038849 0
force S   0.000979453320275  -0.007416828912360  -0.013545319731835 0
force S  -0.001476387638427   0.001603153295662  -0.014034891182898 0
force S   0.005474447243688   0.004263553160318   0.002261501527723 0
force S  -0.005515022186790   0.004237145290413   0.002246717108422 0
force S   0.001659259848529   0.001699866555384  -0.014138114910055 0
force S  -0.000912349793555  -0.007590971950402  -0.013341222902469 0
force S  -0.003733730181265  -0.009481904001702  -0.018422704654547 0
force S   0.001404931095688  -0.006420263996627  -0.017472547686239 0
force S   0.000899414592793  -0.007505691410348  -0.013550842979913 0
force S  -0.001968849410800   0.001161966299836  -0.015590395319276 0
force S   0.005445615225446   0.004296203523056   0.002055221008794 0
force S  -0.005348214663894   0.004353730566077   0.002066268735225 0
force S   0.002179547388825   0.001987235489809  -0.014000887935350 0
force S   0.004081600219300  -0.002176420196328  -0.020628762457975 0
force S   0.001039393594404  -0.007570021919508  -0.013446038265614 0
force S  -0.001639434310400   0.001465463611390  -0.014088260852003 0
force S   0.005582864371125   0.004575663199838   0.001797032104520 0
force S  -0.000896445382994  -0.007330907558510  -0.013230259934539 0
force S  -0.000411746822992  -0.007275732019414  -0.016995368874318 0
force S  -0.005391828331131   0.004131859159964   0.002185414595451 0
force S   0.001536472228119   0.001477210679725  -0.014089953376223 0
force S  -0.001131166765821  -0.007486432903018  -0.013531018225845 0
force S  -0.001171344660446  -0.008082663788014  -0.017090137891190 0
force S   0.002971855125907  -0.012388975216753  -0.019807620309528 0
force S   0.001050504135402  -0.007616707958174  -0.013469228413280 0
force S  -0.001696359449711   0.001636582831711  -0.014329465972570 0
force S   0.005523092977162   0.004285567951536   0.002267401845033 0
force S  -0.005525701112526   0.004324954938001   0.002187156428487 0
force S   0.001621354564540   0.001631434730829  -0.013881644362880 0
force S   0.000775243806228  -0.008149008744828  -0.016812018378733 0
force S   0.000885719296263  -0.007550778668914  -0.013385988842964 0
force S  -0.001653547315134   0.001623121148871  -0.014030379009159 0
force S   0.005455792058187   0.004696574179335   0.001476311356392 0
force S  -0.000879801456668  -0.007428821380482  -0.013354401663492 0
force S  -0.000510408183081  -0.008410130327794  -0.017150277672583 0
force S  -0.006307802250003   0.004753528338551  -0.007594554608690 0
force S   0.002255152973139   0.001192665387615  -0.012586179124458 0
force S  -0.001027141867034  -0.007755745780897  -0.013292452041717 0
force S   0.004749279736116  -0.005869166626216  -0.019064146567241 0
force S   0.003600187886176  -0.006184912407700  -0.005903182659977 0
force S  -0.000521884116300  -0.008175501971030  -0.015000216736986 0
force S  -0.003114049392781   0.001932331712697  -0.012374917203258 0
force S   0.004707296590200   0.003917478077448   0.001774141871954 0
force S  -0.005818048954403   0.004880677710112   0.001882982191915 0
force S   0.001498620512679   0.001506052617408  -0.013964856242252 0
force S  -0.000860194177720  -0.007619425407583  -0.013435195958606 0
force S  -0.003376718413233  -0.008798900057175  -0.019649446744877 0
force S   0.000633240294024  -0.008015762828268  -0.017074431505759 0
force S   0.000979919602951  -0.007549331314169  -0.013750186326617 0
force S  -0.001322354186760   0.001780065479737  -0.013984787178674 0
force S   0.005457304935353   0.004032016402384   0.001511444781133 0
force S  -0.005587726915116   0.004288147923972   0.002007366729259 0
[...]
ElecMinimize: 	Step increased F by 1.238298e-05, reducing alpha to 1.458581e-01.
	Linear fluid (dielectric constant: 64) occupying 0.793343 of unit cell:	Completed after 4 iterations at t[s]:  26301.28
ElecMinimize: 	Step increased F by 3.723017e-08, reducing alpha to 1.458581e-02.
	Linear fluid (dielectric constant: 64) occupying 0.793343 of unit cell:	Completed after 0 iterations at t[s]:  26308.19
	FillingsUpdate:  mu: -0.082529093  nElectrons: 1104.000000
	SubspaceRotationAdjust: set factor to 0.125
ElecMinimize: Iter:   8  F: -7010.066803233169594  |grad|_K:  9.410e-08  alpha:  1.459e-02  linmin:  1.422e-02  t[s]:  26312.48
ElecMinimize: 	Bad step direction: g.d > 0.
ElecMinimize: 	Undoing step.
	Linear fluid (dielectric constant: 64) occupying 0.793343 of unit cell:	Completed after 0 iterations at t[s]:  26316.06
ElecMinimize: 	Step failed: resetting search direction.
	FillingsUpdate:  mu: -0.082529093  nElectrons: 1104.000000
	SubspaceRotationAdjust: set factor to 0.132
ElecMinimize: Iter:   9  F: -7010.066803233183236  |grad|_K:  8.468e-08  alpha:  0.000e+00
	Linear fluid (dielectric constant: 64) occupying 0.793343 of unit cell:	Completed after 0 iterations at t[s]:  26323.93
ElecMinimize: 	Predicted alpha/alphaT>3.000000, increasing alphaT to 4.375744e-02.
	Linear fluid (dielectric constant: 64) occupying 0.793343 of unit cell:	Completed after 0 iterations at t[s]:  26326.84
ElecMinimize: 	Predicted alpha/alphaT>3.000000, increasing alphaT to 1.312723e-01.
	Linear fluid (dielectric constant: 64) occupying 0.793343 of unit cell:	Completed after 2 iterations at t[s]:  26329.77
	Linear fluid (dielectric constant: 64) occupying 0.793343 of unit cell:	Completed after 0 iterations at t[s]:  26332.70
ElecMinimize: 	Step increased F by 1.761264e-07, reducing alpha to 3.122293e-03.
	Linear fluid (dielectric constant: 64) occupying 0.793343 of unit cell:	Completed after 0 iterations at t[s]:  26339.52
ElecMinimize: 	Step increased F by 1.444532e-07, reducing alpha to 3.122293e-04.
	Linear fluid (dielectric constant: 64) occupying 0.793343 of unit cell:	Completed after 0 iterations at t[s]:  26346.37
ElecMinimize: 	Step increased F by 1.412354e-07, reducing alpha to 3.122293e-05.
ElecMinimize: 	Step failed to reduce F after 3 attempts. Quitting step.
ElecMinimize: 	Undoing step.
	Linear fluid (dielectric constant: 64) occupying 0.793343 of unit cell:	Completed after 0 iterations at t[s]:  26353.22
ElecMinimize: 	Step failed along negative gradient direction.
ElecMinimize: Probably at roundoff error limit. (Stopping)
Setting wave functions to eigenvectors of Hamiltonian

# Ionic positions in cartesian coordinates:
ion Ni  32.181130469222218  -0.000028463333331   0.611327655000000 0
ion Ni   5.363545148055554  -0.000028463333331   5.974853827499990 0
ion Ni  32.181130469222218  -5.363543250499998   5.974853827499990 0
ion Ni   5.363545148055554  -5.363543250499998   0.611327655000000 0
ion Ni  32.181130469222218 -10.727058037666666   0.611327655000000 0
ion Ni  32.181130469222218 -21.454087611999999   0.611327655000000 0
ion Ni   5.363545148055554 -21.454087611999999   5.974853827499990 0
ion Ni   5.363545148055554 -10.727058037666666   5.974853827499990 0
ion Ni  32.181130469222218 -16.090572824833334   5.974853827499990 0
ion Ni  32.181130469222218 -26.817602399166638   5.974853827499990 0
ion Ni   5.363545148055554 -26.817602399166638   0.611327655000000 0
ion Ni   5.363545148055554 -16.090572824833334   0.611327655000000 0
ion Ni  10.727071320555538  -0.000028463333331   0.611327655000000 0
ion Ni  21.454100894888885  -0.000028463333331   0.611327655000000 0
ion Ni  21.454100894888885  -5.363543250499998   5.974853827499990 0
ion Ni  10.727071320555538  -5.363543250499998   5.974853827499990 0
ion Ni  16.090574722388887  -5.363543250499998   0.611327655000000 0
ion Ni  26.817604296722195  -5.363543250499998   0.611327655000000 0
ion Ni  26.817604296722195  -0.000028463333331   5.974853827499990 0
ion Ni  16.090574722388887  -0.000028463333331   5.974853827499990 0
ion Ni  10.727071320555538 -10.727058037666666   0.611327655000000 0
ion Ni  21.454100894888885 -21.454087611999999   0.611327655000000 0
ion Ni  26.817604296722195 -21.454087611999999   5.974853827499990 0
ion Ni  16.090574722388887 -10.727058037666666   5.974853827499990 0
ion Ni  21.454100894888885 -16.090572824833334   5.974853827499990 0
ion Ni  10.727071320555538 -26.817602399166638   5.974853827499990 0
ion Ni  16.090574722388887 -26.817602399166638   0.611327655000000 0
ion Ni  26.817604296722195 -16.090572824833334   0.611327655000000 0
ion Ni  10.727071320555538 -21.454087611999999   0.611327655000000 0
ion Ni  21.454100894888885 -10.727058037666666   0.611327655000000 0
ion Ni  26.817604296722195 -10.727058037666666   5.974853827499990 0
ion Ni  16.090574722388887 -21.454087611999999   5.974853827499990 0
ion Ni  21.454100894888885 -26.817602399166638   5.974853827499990 0
ion Ni  10.727071320555538 -16.090572824833334   5.974853827499990 0
ion Ni  16.090574722388887 -16.090572824833334   0.611327655000000 0
ion Ni  26.817604296722195 -26.817602399166638   0.611327655000000 0
ion S   4.232269668888878  -4.232271970733331   7.106125994099992 0
ion S  27.948891161222193 -27.948885064266641   4.843581660899996 0
ion S   1.131317225388885 -27.948885064266641   1.742599821599998 0
ion S   9.595784456055538  -4.232271970733331  10.207107833399988 0
ion S  27.948891161222193  -9.595786757899997  10.207107833399988 0
ion S   4.232269668888878  -1.131311128433331   1.742599821599998 0
ion S   9.595784456055538  -1.131311128433331   4.843581660899996 0
ion S   1.131317225388885  -9.595786757899997   7.106125994099992 0
ion S   4.232269668888878 -14.959301545066651   7.106125994099992 0
ion S  27.948891161222193 -17.221855489933304   4.843581660899996 0
ion S   1.131317225388885 -17.221855489933304   1.742599821599998 0
ion S   9.595784456055538 -14.959301545066651  10.207107833399988 0
ion S  27.948891161222193 -20.322816332233330  10.207107833399988 0
ion S   4.232269668888878 -22.585370277100001   1.742599821599998 0
ion S   9.595784456055538 -22.585370277100001   4.843581660899996 0
ion S   1.131317225388885 -20.322816332233330   7.106125994099992 0
ion S  14.959299243222206  -4.232271970733330   7.106125994099992 0
ion S  17.221861586888888 -27.948885064266641   4.843581660899996 0
ion S  17.221861586888888  -9.595786757899997  10.207107833399988 0
ion S  14.959299243222206  -1.131311128433331   1.742599821599998 0
ion S  20.322814030388887  -1.131311128433331   4.843581660899996 0
ion S  22.585376374055553  -9.595786757899997   7.106125994099992 0
ion S  22.585376374055553 -27.948885064266641   1.742599821599998 0
ion S  20.322814030388887  -4.232271970733330  10.207107833399988 0
ion S   4.232269668888878 -25.686331119399973   7.106125994099992 0
ion S  27.948891161222193  -6.494825915599991   4.843581660899996 0
ion S   1.131317225388885  -6.494825915599991   1.742599821599998 0
ion S   9.595784456055538 -25.686331119399973  10.207107833399988 0
ion S  27.948891161222193 -31.049845906566667  10.207107833399988 0
ion S   4.232269668888878 -11.858340702766652   1.742599821599998 0
ion S   9.595784456055538 -11.858340702766652   4.843581660899996 0
ion S   1.131317225388885 -31.049845906566667   7.106125994099992 0
ion S  25.686328817555527  -4.232271970733330   7.106125994099992 0
ion S   6.494832012555547 -27.948885064266641   4.843581660899996 0
ion S   6.494832012555547  -9.595786757899997  10.207107833399988 0
ion S  25.686328817555527  -1.131311128433331   1.742599821599998 0
ion S  31.049843604722220  -1.131311128433331   4.843581660899996 0
ion S  11.858346799722208  -9.595786757899997   7.106125994099992 0
ion S  11.858346799722208 -27.948885064266641   1.742599821599998 0
ion S  31.049843604722220  -4.232271970733330  10.207107833399988 0
ion S  14.959299243222206 -14.959301545066651   7.106125994099992 0
ion S  17.221861586888888 -17.221855489933304   4.843581660899996 0
ion S  22.585376374055553 -17.221855489933304   1.742599821599998 0
ion S  20.322814030388887 -14.959301545066651  10.207107833399988 0
ion S  17.221861586888888 -20.322816332233330  10.207107833399988 0
ion S  14.959299243222206 -22.585370277100001   1.742599821599998 0
ion S  20.322814030388887 -22.585370277100001   4.843581660899996 0
ion S  22.585376374055553 -20.322816332233330   7.106125994099992 0
ion S  14.959299243222206 -25.686331119399973   7.106125994099992 0
ion S  17.221861586888888  -6.494825915599991   4.843581660899996 0
ion S  22.585376374055553  -6.494825915599991   1.742599821599998 0
ion S  20.322814030388887 -25.686331119399973  10.207107833399988 0
ion S  17.221861586888888 -31.049845906566667  10.207107833399988 0
ion S  14.959299243222206 -11.858340702766652   1.742599821599998 0
ion S  20.322814030388887 -11.858340702766652   4.843581660899996 0
ion S  22.585376374055553 -31.049845906566667   7.106125994099992 0
ion S  25.686328817555527 -14.959301545066651   7.106125994099992 0
ion S   6.494832012555547 -17.221855489933304   4.843581660899996 0
ion S  11.858346799722208 -17.221855489933304   1.742599821599998 0
ion S  31.049843604722220 -14.959301545066651  10.207107833399988 0
ion S   6.494832012555547 -20.322816332233330  10.207107833399988 0
ion S  25.686328817555527 -22.585370277100001   1.742599821599998 0
ion S  31.049843604722220 -22.585370277100001   4.843581660899996 0
ion S  11.858346799722208 -20.322816332233330   7.106125994099992 0
ion S  25.686328817555527 -25.686331119399973   7.106125994099992 0
ion S   6.494832012555547  -6.494825915599991   4.843581660899996 0
ion S  11.858346799722208  -6.494825915599991   1.742599821599998 0
ion S  31.049843604722220 -25.686331119399973  10.207107833399988 0
ion S   6.494832012555547 -31.049845906566667  10.207107833399988 0
ion S  25.686328817555527 -11.858340702766652   1.742599821599998 0
ion S  31.049843604722220 -11.858340702766652   4.843581660899996 0
ion S  11.858346799722208 -31.049845906566667   7.106125994099992 0
ion S  14.264322982182026 -19.980579440378321  12.384967387682771 1
ion Na  14.572518357429459 -13.471296887605018  15.844593040343455 1
ion Na  25.542896297865557 -26.173480563653527  15.463717883312768 1

# Forces in Cartesian coordinates:
force Ni   0.022483915031973   0.009912201496085   0.035181873234772 0
force Ni  -0.002760561744586  -0.000399590722438   0.007137665552902 0
force Ni   0.002801896375588  -0.000410317547532   0.007089164834165 0
force Ni  -0.022543516768675   0.009951648875789   0.035259808536131 0
force Ni   0.022526340403110   0.009918007633533   0.035228493709940 0
force Ni   0.022594794099505   0.009928979911825   0.035205789022703 0
force Ni  -0.002691067716054  -0.000240054649607   0.007323802494756 0
force Ni  -0.002807029398844  -0.000387221533780   0.007026904152902 0
force Ni   0.002809944565919  -0.000395914201086   0.007106587117391 0
force Ni   0.002793623684365  -0.000409420633467   0.007050929860409 0
force Ni  -0.022540539464643   0.009990016863805   0.035238439926557 0
force Ni  -0.022581940787930   0.009951186428540   0.035194232480655 0
force Ni   0.022463785583721   0.009898632033041   0.035157047865110 0
force Ni   0.022554852131913   0.009928788718670   0.035313166586972 0
force Ni   0.002825902641646  -0.000466983561419   0.007024795388366 0
force Ni   0.002762914912352  -0.000404673690414   0.007067945633561 0
force Ni  -0.022500953514581   0.009909121388949   0.035185824012054 0
force Ni  -0.022549848649778   0.009928805683969   0.035224309163076 0
force Ni  -0.002862553594511  -0.000415563401046   0.007012772523740 0
force Ni  -0.002937149642953  -0.000330663161666   0.007242579141941 0
force Ni   0.022493281222024   0.009894538042404   0.035135617589821 0
force Ni   0.022564596112879   0.010296500857064   0.034821148035096 0
force Ni  -0.001836010062267  -0.000648955001140   0.007856319173128 0
force Ni  -0.002752959570912  -0.000220848177292   0.007177713514556 0
force Ni   0.002634510080318  -0.000179289442191   0.007061708074891 0
force Ni   0.002760653229505  -0.000217774938954   0.007142552707763 0
force Ni  -0.022534634644478   0.009935316598461   0.035040699192699 0
force Ni  -0.022547434969217   0.009915036465865   0.035212362018962 0
force Ni   0.022698041514241   0.010128946070136   0.034864835587633 0
force Ni   0.022590018099750   0.009992484962343   0.035314347421388 0
force Ni  -0.002868334627268  -0.000375365799227   0.007079996124486 0
force Ni  -0.005546604624636  -0.002473051838235  -0.000234275610816 0
force Ni   0.003029857715619  -0.001198633212555   0.006767719076822 0
force Ni   0.002678672790221  -0.000970975712486   0.007472880982004 0
force Ni  -0.022753792060498   0.009864744526385   0.034607958222773 0
force Ni  -0.022462554955963   0.009866681986238   0.035212448077341 0
force S  -0.005574752147134   0.004352443335834   0.002000524592323 0
force S   0.001726137717599   0.001412037987370  -0.014154890822131 0
force S  -0.000980873825305  -0.007568350508759  -0.013527795571710 0
force S  -0.000638390269963  -0.007885320446120  -0.016886880571979 0
force S   0.000694773891289  -0.007849469416476  -0.016980216338416 0
force S   0.000913957050142  -0.007526097107268  -0.013573461236574 0
force S  -0.001513450279577   0.001552677780734  -0.014111313378757 0
force S   0.005548488617572   0.004368956294961   0.002015121658373 0
force S  -0.005476449607165   0.004354019241912   0.002115213629960 0
force S   0.001795818260115   0.001654724261726  -0.014088716601904 0
force S  -0.000981719940925  -0.007586558110562  -0.013548123638009 0
force S  -0.000298601521735  -0.007840240088502  -0.016467898468158 0
force S   0.000731037215490  -0.007779375795011  -0.016842657554594 0
force S   0.000883146944716  -0.007557814277949  -0.013757968716277 0
force S  -0.001029274390897   0.001998948922905  -0.014439749847383 0
force S   0.005457397431535   0.004268618542342   0.001972803866235 0
force S  -0.005526688212739   0.004357207013290   0.001926824641068 0
force S   0.002164195976278   0.001961596367358  -0.013935120153967 0
force S   0.000696249817705  -0.007679034958801  -0.017199990798585 0
force S   0.000850734196167  -0.007624297220902  -0.013576129397230 0
force S  -0.001554532163500   0.001410270457068  -0.013976991550801 0
force S   0.005568144013952   0.004672711999070   0.001679021835055 0
force S  -0.000950785344254  -0.007345315370963  -0.013407594128327 0
force S  -0.000611396937748  -0.007778918574833  -0.016907976311671 0
force S  -0.005505673758830   0.004227398939848   0.002108633881159 0
force S   0.001673821775294   0.001486988306582  -0.014022521982729 0
force S  -0.000991344258490  -0.007575538054892  -0.013548945150681 0
force S  -0.001096499968483  -0.008268580017753  -0.016842193787045 0
force S   0.000692582367491  -0.008012107421271  -0.017066576659744 0
force S   0.000937053533302  -0.007560444147989  -0.013574216772863 0
force S  -0.001691006497270   0.001777246624838  -0.014309271500191 0
force S   0.005583585052226   0.004374567211948   0.002006907548561 0
force S  -0.005598015023685   0.004384093121446   0.001952891858522 0
force S   0.001610572278283   0.001496146345865  -0.013924985264500 0
force S   0.000760920537764  -0.008181051034200  -0.016846737163389 0
force S   0.001013497433699  -0.007565035086057  -0.013493810131346 0
force S  -0.001671605508919   0.001530467909333  -0.014047504211062 0
force S   0.005587654207857   0.004415597151387   0.001881762251968 0
force S  -0.000907955021418  -0.007582554185111  -0.013609989705092 0
force S  -0.000655533587455  -0.007908861644178  -0.016995341865308 0
force S  -0.005324074364018   0.005274126780516   0.001155130061453 0
force S   0.001522242002167   0.001727796938345  -0.013553473923915 0
force S  -0.001023089013034  -0.007665365953605  -0.013596405177868 0
force S   0.001593027905329  -0.005340089798796  -0.016994142675712 0
force S   0.003243466865217  -0.006416647134484  -0.003772855843697 0
force S  -0.000236879113918  -0.008341640420348  -0.015480526910374 0
force S  -0.003125150038985   0.001914658709182  -0.012176149590782 0
force S   0.004873697809913   0.003916862333842   0.001628535254506 0
force S  -0.005676869634711   0.004727846512729   0.001904680976125 0
force S   0.001595858034219   0.001513990705771  -0.014043579856142 0
force S  -0.000919102766104  -0.007490116023223  -0.013584216586803 0
force S   0.000891054620943  -0.009128526188930  -0.017568545380426 0
force S   0.000512674358152  -0.007962255959848  -0.016960933277871 0
force S   0.000879118064780  -0.007521656571852  -0.013864769027291 0
force S  -0.001460095184607   0.001672477616214  -0.013849151882267 0
force S   0.005553992645775   0.004293395600087   0.001742175701426 0
force S  -0.005635130880617   0.004381661991692   0.001981975391386 0
force S   0.001448370909746   0.001571036499638  -0.014150574707736 0
force S  -0.000785371333749  -0.007449091689374  -0.013827644407399 0
force S  -0.000640342807699  -0.007759361931238  -0.016931556720899 0
force S   0.000416606652463  -0.008089385550092  -0.017650220510815 0
force S   0.000766224945443  -0.007689876779127  -0.013660503298949 0
force S  -0.001506810941970   0.001533485814911  -0.014155939122745 0
force S   0.001789363671537   0.002455853244684   0.000271973923440 0
force S  -0.005682771696263   0.004416036568756   0.001689644908793 0
force S   0.001636339585098   0.001585206624168  -0.014007095813190 0
force S  -0.000885602081512  -0.007557254232111  -0.013538876209378 0
force S  -0.000423347381548  -0.007810531644358  -0.016966908774111 0
force S   0.000762794908057  -0.007617064307288  -0.016913703786158 0
force S   0.001044228563904  -0.007554988239068  -0.013536627797727 0
force S  -0.001689198985756   0.001541035920941  -0.014017422853337 0
force S   0.005465539026771   0.004117960562138   0.001938127071419 0
force S   0.001512693618949   0.000069496833600  -0.001051173116692 1
force Na  -0.000007233432047   0.000041786160605   0.000048515690106 1
force Na   0.000001943080805   0.000003112136660  -0.000000114194782 1

# Energy components:
   A_diel =       -1.4714593078320861
   Eewald =    29653.7031001551149529
       EH =    35866.5943443527503405
     Eloc =   -73746.5518614504690049
      Enl =      908.0624108876779701
      Exc =     -957.9772656107397779
 Exc_core =      143.4819629124650646
       KE =     1125.1079503007008498
-------------------------------------
     Etot =    -7009.0508177603314834
       TS =        1.0159853315830965
-------------------------------------
        F =    -7010.0668030919141529

IonicMinimize: Iter:  31  F: -7010.066803091914153  |grad|_K:  6.148e-04  alpha:  5.258e-02  linmin: -8.315e-03  t[s]:  26360.98
IonicMinimize: Converged (|Delta F|<1.000000e-06 for 2 iters).

#--- Lowdin population analysis ---
# oxidation-state Ni +0.200 -0.444 -0.443 +0.196 +0.198 +0.200 -0.446 -0.444 -0.443 -0.443 +0.196 +0.196 +0.201 +0.196 -0.443 -0.444 +0.200 +0.198 -0.442 -0.444 +0.200 +0.193 -0.439 -0.444 -0.449 -0.446 +0.199 +0.197 +0.189 +0.194 -0.442 -0.473 -0.443 -0.447 +0.196 +0.199
# oxidation-state S +0.282 +0.443 +0.042 -0.265 -0.264 +0.042 +0.443 +0.282 +0.281 +0.442 +0.042 -0.233 -0.264 +0.042 +0.443 +0.282 +0.282 +0.444 -0.254 +0.042 +0.443 +0.283 +0.042 -0.266 +0.282 +0.443 +0.042 -0.251 -0.258 +0.042 +0.442 +0.282 +0.282 +0.443 -0.266 +0.042 +0.443 +0.280 +0.043 -0.263 +0.269 +0.432 +0.042 -0.299 +0.243 +0.038 +0.437 +0.248 +0.277 +0.444 +0.042 -0.293 -0.265 +0.041 +0.443 +0.281 +0.282 +0.442 +0.042 -0.264 -0.259 +0.040 +0.444 +0.303 +0.281 +0.443 +0.043 -0.260 -0.263 +0.042 +0.443 +0.281 -0.136
# oxidation-state Na +0.942 +0.941


Dumping 'Na2S@NiS2_S-PC.fillings' ... done
Dumping 'Na2S@NiS2_S-PC.wfns' ... done
Dumping 'Na2S@NiS2_S-PC.fluidState' ... done
Dumping 'Na2S@NiS2_S-PC.ionpos' ... done
Dumping 'Na2S@NiS2_S-PC.eigenvals' ... done
End date and time: Sun Dec 29 05:06:13 2024  (Duration: 0-7:19:27.77)
Done!
