
*************** JDFTx 1.7.0  ***************

Start date and time: Sat Oct  5 05:30:22 2024
Executable jdftx_gpu with command-line: -i /home/akim2/JDFTx/Na2S2@NiS2_S-PC/Na2S2@NiS2_S-PC.in -o /home/akim2/JDFTx/Na2S2@NiS2_S-PC/Na2S2@NiS2_S-PC.out
Running on hosts (process indices):  exp-1-59 (0)
Divided in process groups (process indices):  0 (0)
gpuInit: Found compatible cuda device 0 'Tesla V100-SXM2-32GB'
gpuInit: Selected device 0
Resource initialization completed at t[s]:      0.38
Run totals: 1 processes, 1 threads, 1 GPUs


Input parsed successfully to the following command list (including defaults):

basis kpoint-dependent
coords-type Cartesian
core-overlap-check vector
coulomb-interaction Slab 001
coulomb-truncation-embed 0 0 7
davidson-band-ratio 1.1
dump End State
dump-name Na2S2@NiS2_S-PC.$VAR
elec-cutoff 20 100
elec-eigen-algo Davidson
elec-ex-corr gga-PBE
elec-smearing Fermi 0.01
electronic-minimize  \
	dirUpdateScheme      FletcherReeves \
	linminMethod         DirUpdateRecommended \
	nIterations          100 \
	history              15 \
	knormThreshold       0 \
	energyDiffThreshold  1e-08 \
	nEnergyDiff          2 \
	alphaTstart          1 \
	alphaTmin            1e-10 \
	updateTestStepSize   yes \
	alphaTreduceFactor   0.1 \
	alphaTincreaseFactor 3 \
	nAlphaAdjustMax      3 \
	wolfeEnergy          0.0001 \
	wolfeGradient        0.9 \
	fdTest               no
exchange-regularization WignerSeitzTruncated
fluid LinearPCM 298.000000 1.013250
fluid-ex-corr lda-TF lda-PZ
fluid-gummel-loop 10 1.000000e-05
fluid-minimize  \
	dirUpdateScheme      PolakRibiere \
	linminMethod         DirUpdateRecommended \
	nIterations          400 \
	history              15 \
	knormThreshold       1e-11 \
	energyDiffThreshold  0 \
	nEnergyDiff          2 \
	alphaTstart          1 \
	alphaTmin            1e-10 \
	updateTestStepSize   yes \
	alphaTreduceFactor   0.1 \
	alphaTincreaseFactor 3 \
	nAlphaAdjustMax      6 \
	wolfeEnergy          0.0001 \
	wolfeGradient        0.9 \
	fdTest               no
fluid-solvent PC 11.6429 ScalarEOS \
	epsBulk 64 \
	pMol 2.95 \
	epsInf 2.02 \
	Pvap 1.53277e-13 \
	sigmaBulk 2.88e-05 \
	Rvdw 0 \
	Res 0 \
	tauNuc 343133
forces-output-coords Positions
ion Ni  32.181130469222218  -0.000028463333331   0.611327655000000 0
ion Ni   5.363545148055554  -0.000028463333331   5.974853827499991 0
ion Ni  32.181130469222218  -5.363543250499998   5.974853827499991 0
ion Ni   5.363545148055554  -5.363543250499998   0.611327655000000 0
ion Ni  32.181130469222218 -10.727058037666666   0.611327655000000 0
ion Ni  32.181130469222218 -21.454087611999999   0.611327655000000 0
ion Ni   5.363545148055554 -21.454087611999999   5.974853827499991 0
ion Ni   5.363545148055554 -10.727058037666666   5.974853827499991 0
ion Ni  32.181130469222218 -16.090572824833334   5.974853827499991 0
ion Ni  32.181130469222218 -26.817602399166642   5.974853827499991 0
ion Ni   5.363545148055554 -26.817602399166642   0.611327655000000 0
ion Ni   5.363545148055554 -16.090572824833334   0.611327655000000 0
ion Ni  10.727071320555540  -0.000028463333331   0.611327655000000 0
ion Ni  21.454100894888885  -0.000028463333331   0.611327655000000 0
ion Ni  21.454100894888885  -5.363543250499998   5.974853827499991 0
ion Ni  10.727071320555540  -5.363543250499998   5.974853827499991 0
ion Ni  16.090574722388887  -5.363543250499998   0.611327655000000 0
ion Ni  26.817604296722198  -5.363543250499998   0.611327655000000 0
ion Ni  26.817604296722198  -0.000028463333331   5.974853827499991 0
ion Ni  16.090574722388887  -0.000028463333331   5.974853827499991 0
ion Ni  10.727071320555540 -10.727058037666666   0.611327655000000 0
ion Ni  21.454100894888885 -21.454087611999999   0.611327655000000 0
ion Ni  26.817604296722198 -21.454087611999999   5.974853827499991 0
ion Ni  16.090574722388887 -10.727058037666666   5.974853827499991 0
ion Ni  21.454100894888885 -16.090572824833334   5.974853827499991 0
ion Ni  10.727071320555540 -26.817602399166642   5.974853827499991 0
ion Ni  16.090574722388887 -26.817602399166642   0.611327655000000 0
ion Ni  26.817604296722198 -16.090572824833334   0.611327655000000 0
ion Ni  10.727071320555540 -21.454087611999999   0.611327655000000 0
ion Ni  21.454100894888885 -10.727058037666666   0.611327655000000 0
ion Ni  26.817604296722198 -10.727058037666666   5.974853827499991 0
ion Ni  16.090574722388887 -21.454087611999999   5.974853827499991 0
ion Ni  21.454100894888885 -26.817602399166642   5.974853827499991 0
ion Ni  10.727071320555540 -16.090572824833334   5.974853827499991 0
ion Ni  16.090574722388887 -16.090572824833334   0.611327655000000 0
ion Ni  26.817604296722198 -26.817602399166642   0.611327655000000 0
ion S   4.232269668888879  -4.232271970733331   7.106125994099994 0
ion S  27.948891161222196 -27.948885064266644   4.843581660899996 0
ion S   1.131317225388885 -27.948885064266644   1.742599821599998 0
ion S   9.595784456055540  -4.232271970733331  10.207107833399991 0
ion S  27.948891161222196  -9.595786757899997  10.207107833399991 0
ion S   4.232269668888879  -1.131311128433331   1.742599821599998 0
ion S   9.595784456055540  -1.131311128433331   4.843581660899996 0
ion S   1.131317225388885  -9.595786757899997   7.106125994099994 0
ion S   4.232269668888879 -14.959301545066653   7.106125994099994 0
ion S  27.948891161222196 -17.221855489933308   4.843581660899996 0
ion S   1.131317225388885 -17.221855489933308   1.742599821599998 0
ion S   9.595784456055540 -14.959301545066653  10.207107833399991 0
ion S  27.948891161222196 -20.322816332233330  10.207107833399991 0
ion S   4.232269668888879 -22.585370277100001   1.742599821599998 0
ion S   9.595784456055540 -22.585370277100001   4.843581660899996 0
ion S   1.131317225388885 -20.322816332233330   7.106125994099994 0
ion S  14.959299243222208  -4.232271970733330   7.106125994099994 0
ion S  17.221861586888888 -27.948885064266644   4.843581660899996 0
ion S  17.221861586888888  -9.595786757899997  10.207107833399991 0
ion S  14.959299243222208  -1.131311128433331   1.742599821599998 0
ion S  20.322814030388887  -1.131311128433331   4.843581660899996 0
ion S  22.585376374055553  -9.595786757899997   7.106125994099994 0
ion S  22.585376374055553 -27.948885064266644   1.742599821599998 0
ion S  20.322814030388887  -4.232271970733330  10.207107833399991 0
ion S   4.232269668888879 -25.686331119399977   7.106125994099994 0
ion S  27.948891161222196  -6.494825915599992   4.843581660899996 0
ion S   1.131317225388885  -6.494825915599992   1.742599821599998 0
ion S   9.595784456055540 -25.686331119399977  10.207107833399991 0
ion S  27.948891161222196 -31.049845906566667  10.207107833399991 0
ion S   4.232269668888879 -11.858340702766654   1.742599821599998 0
ion S   9.595784456055540 -11.858340702766654   4.843581660899996 0
ion S   1.131317225388885 -31.049845906566667   7.106125994099994 0
ion S  25.686328817555530  -4.232271970733330   7.106125994099994 0
ion S   6.494832012555547 -27.948885064266644   4.843581660899996 0
ion S   6.494832012555547  -9.595786757899997  10.207107833399991 0
ion S  25.686328817555530  -1.131311128433331   1.742599821599998 0
ion S  31.049843604722220  -1.131311128433331   4.843581660899996 0
ion S  11.858346799722209  -9.595786757899997   7.106125994099994 0
ion S  11.858346799722209 -27.948885064266644   1.742599821599998 0
ion S  31.049843604722220  -4.232271970733330  10.207107833399991 0
ion S  14.959299243222208 -14.959301545066653   7.106125994099994 0
ion S  17.221861586888888 -17.221855489933308   4.843581660899996 0
ion S  22.585376374055553 -17.221855489933308   1.742599821599998 0
ion S  20.322814030388887 -14.959301545066653  10.207107833399991 0
ion S  17.221861586888888 -20.322816332233330  10.207107833399991 0
ion S  14.959299243222208 -22.585370277100001   1.742599821599998 0
ion S  20.322814030388887 -22.585370277100001   4.843581660899996 0
ion S  22.585376374055553 -20.322816332233330   7.106125994099994 0
ion S  14.959299243222208 -25.686331119399977   7.106125994099994 0
ion S  17.221861586888888  -6.494825915599992   4.843581660899996 0
ion S  22.585376374055553  -6.494825915599992   1.742599821599998 0
ion S  20.322814030388887 -25.686331119399977  10.207107833399991 0
ion S  17.221861586888888 -31.049845906566667  10.207107833399991 0
ion S  14.959299243222208 -11.858340702766654   1.742599821599998 0
ion S  20.322814030388887 -11.858340702766654   4.843581660899996 0
ion S  22.585376374055553 -31.049845906566667   7.106125994099994 0
ion S  25.686328817555530 -14.959301545066653   7.106125994099994 0
ion S   6.494832012555547 -17.221855489933308   4.843581660899996 0
ion S  11.858346799722209 -17.221855489933308   1.742599821599998 0
ion S  31.049843604722220 -14.959301545066653  10.207107833399991 0
ion S   6.494832012555547 -20.322816332233330  10.207107833399991 0
ion S  25.686328817555530 -22.585370277100001   1.742599821599998 0
ion S  31.049843604722220 -22.585370277100001   4.843581660899996 0
ion S  11.858346799722209 -20.322816332233330   7.106125994099994 0
ion S  25.686328817555530 -25.686331119399977   7.106125994099994 0
ion S   6.494832012555547  -6.494825915599992   4.843581660899996 0
ion S  11.858346799722209  -6.494825915599992   1.742599821599998 0
ion S  31.049843604722220 -25.686331119399977  10.207107833399991 0
ion S   6.494832012555547 -31.049845906566667  10.207107833399991 0
ion S  25.686328817555530 -11.858340702766654   1.742599821599998 0
ion S  31.049843604722220 -11.858340702766654   4.843581660899996 0
ion S  11.858346799722209 -31.049845906566667   7.106125994099994 0
ion S  22.073101273691503 -16.801313493397917  12.903415698242060 1
ion S  14.158399616325404 -19.433561382763294  11.982669504594526 1
ion Na   4.420528436048222 -26.305191926387131  12.270216360786934 1
ion Na  26.595090820234368 -14.175433835040568  12.615749748593815 1
ion-species GBRV/$ID_pbe.uspp
ion-width Ecut
ionic-minimize  \
	dirUpdateScheme      FletcherReeves \
	linminMethod         DirUpdateRecommended \
	nIterations          200 \
	history              15 \
	knormThreshold       0.0001 \
	energyDiffThreshold  1e-06 \
	nEnergyDiff          2 \
	alphaTstart          1 \
	alphaTmin            1e-10 \
	updateTestStepSize   yes \
	alphaTreduceFactor   0.1 \
	alphaTincreaseFactor 3 \
	nAlphaAdjustMax      3 \
	wolfeEnergy          0.0001 \
	wolfeGradient        0.9 \
	fdTest               no
kpoint   0.000000000000   0.000000000000   0.000000000000  1.00000000000000
kpoint-folding 1 1 1 
latt-move-scale 1 1 1
latt-scale 1 1 1 
lattice Triclinic 32.1811 32.1811 44 90 90 90
lattice-minimize  \
	dirUpdateScheme      L-BFGS \
	linminMethod         DirUpdateRecommended \
	nIterations          0 \
	history              15 \
	knormThreshold       0 \
	energyDiffThreshold  1e-06 \
	nEnergyDiff          2 \
	alphaTstart          1 \
	alphaTmin            1e-10 \
	updateTestStepSize   yes \
	alphaTreduceFactor   0.1 \
	alphaTincreaseFactor 3 \
	nAlphaAdjustMax      3 \
	wolfeEnergy          0.0001 \
	wolfeGradient        0.9 \
	fdTest               no
lcao-params -1 1e-06 0.01
pcm-variant GLSSA13
spintype no-spin
subspace-rotation-factor 1 yes
symmetries automatic
symmetry-threshold 0.0001



---------- Setting up symmetries ----------

Found 16 point-group symmetries of the bravais lattice
Found 1 space-group symmetries with basis
Applied RMS atom displacement 0 bohrs to make symmetries exact.

---------- Initializing the Grid ----------
R = 
[      32.1811            0            0  ]
[            0      32.1811            0  ]
[            0            0           44  ]
unit cell volume = 45567.4
G =
[   0.195245          0          0  ]
[          0   0.195245          0  ]
[          0          0     0.1428  ]
Minimum fftbox size, Smin = [  148  148  200  ]
Chosen fftbox size, S = [  150  150  200  ]

---------- Initializing tighter grid for wavefunction operations ----------
R = 
[      32.1811            0            0  ]
[            0      32.1811            0  ]
[            0            0           44  ]
unit cell volume = 45567.4
G =
[   0.195245          0          0  ]
[          0   0.195245          0  ]
[          0          0     0.1428  ]
Minimum fftbox size, Smin = [  132  132  180  ]
Chosen fftbox size, S = [  140  140  180  ]

---------- Exchange Correlation functional ----------
Initalized PBE GGA exchange.
Initalized PBE GGA correlation.

---------- Setting up pseudopotentials ----------
Width of ionic core gaussian charges (only for fluid interactions / plotting) set to 0.397384

Reading pseudopotential file '/home/akim2/jdftx_install/build/pseudopotentials/GBRV/ni_pbe.uspp':
  Title: Ni.  Created by USPP 7.3.6 on 1-4-15
  Reference state energy: -170.398381.  18 valence electrons in orbitals:
    |300>  occupation: 2  eigenvalue: -4.804705
    |310>  occupation: 6  eigenvalue: -3.347751
    |320>  occupation: 8  eigenvalue: -1.042415
    |400>  occupation: 0  eigenvalue: -0.795539
    |410>  occupation: 0  eigenvalue: -0.551375
  lMax: 2  lLocal: 3  QijEcut: 6.5
  6 projectors sampled on a log grid with 611 points:
    l: 0  eig: -4.804708  rCut: 1.44
    l: 0  eig: -0.795541  rCut: 1.44
    l: 1  eig: -3.347753  rCut: 1.55
    l: 1  eig: 0.500000  rCut: 1.55
    l: 2  eig: -1.042418  rCut: 1.5
    l: 2  eig: -0.450000  rCut: 1.5
  Partial core density with radius 0.65
  Transforming core density to a uniform radial grid of dG=0.02 with 1263 points.
  Transforming local potential to a uniform radial grid of dG=0.02 with 1263 points.
  Transforming nonlocal projectors to a uniform radial grid of dG=0.02 with 432 points.
  Transforming density augmentations to a uniform radial grid of dG=0.02 with 1263 points.
  Transforming atomic orbitals to a uniform radial grid of dG=0.02 with 432 points.
  Core radius for overlap checks: 1.55 bohrs.

Reading pseudopotential file '/home/akim2/jdftx_install/build/pseudopotentials/GBRV/s_pbe.uspp':
  Title: S.  Created by USPP 7.3.6 on 1-4-15
  Reference state energy: -11.898476.  6 valence electrons in orbitals:
    |300>  occupation: 2  eigenvalue: -0.634167
    |310>  occupation: 4  eigenvalue: -0.257568
  lMax: 2  lLocal: 3  QijEcut: 6
  6 projectors sampled on a log grid with 635 points:
    l: 0  eig: -0.634161  rCut: 1.5
    l: 0  eig: 1.500000  rCut: 1.5
    l: 1  eig: -0.257567  rCut: 1.5
    l: 1  eig: 1.500000  rCut: 1.5
    l: 2  eig: -1.000000  rCut: 1.5
    l: 2  eig: 1.500000  rCut: 1.5
  Partial core density with radius 1.15
  Transforming core density to a uniform radial grid of dG=0.02 with 1263 points.
  Transforming local potential to a uniform radial grid of dG=0.02 with 1263 points.
  Transforming nonlocal projectors to a uniform radial grid of dG=0.02 with 432 points.
  Transforming density augmentations to a uniform radial grid of dG=0.02 with 1263 points.
  Transforming atomic orbitals to a uniform radial grid of dG=0.02 with 432 points.
  Core radius for overlap checks: 1.50 bohrs.

Reading pseudopotential file '/home/akim2/jdftx_install/build/pseudopotentials/GBRV/na_pbe.uspp':
  Title: Na.  Created by USPP 7.3.6 on 23-9-15
  Reference state energy: -47.625620.  9 valence electrons in orbitals:
    |200>  occupation: 2  eigenvalue: -2.085638
    |210>  occupation: 6  eigenvalue: -1.053708
    |300>  occupation: 1  eigenvalue: -0.100838
  lMax: 2  lLocal: 0  QijEcut: 6
  5 projectors sampled on a log grid with 657 points:
    l: 0  eig: -2.085640  rCut: 1.37
    l: 0  eig: -0.100839  rCut: 1.37
    l: 1  eig: -1.053708  rCut: 1.47
    l: 1  eig: 0.500000  rCut: 1.47
    l: 2  eig: 0.750000  rCut: 2
  Transforming local potential to a uniform radial grid of dG=0.02 with 1263 points.
  Transforming nonlocal projectors to a uniform radial grid of dG=0.02 with 432 points.
  Transforming density augmentations to a uniform radial grid of dG=0.02 with 1263 points.
  Transforming atomic orbitals to a uniform radial grid of dG=0.02 with 432 points.
  Core radius for overlap checks: 2.00 bohrs.

Initialized 3 species with 112 total atoms.

Folded 1 k-points by 1x1x1 to 1 k-points.

---------- Setting up k-points, bands, fillings ----------
No reducable k-points. 
Computing the number of bands and number of electrons
Calculating initial fillings.
nElectrons: 1110.000000   nBands: 774   nStates: 1

----- Setting up reduced wavefunction bases (one per k-point) -----
average nbasis = 194745.000 , ideal nbasis = 194667.357

---------- Setting up coulomb interaction ----------
Fluid mode embedding: using embedded box, but periodic Coulomb kernel.
(Fluid response is responsible for (approximate) separation between periodic images.)
Setting up double-sized grid for truncated Coulomb potentials:
R = 
[      32.1811            0            0  ]
[            0      32.1811            0  ]
[            0            0           88  ]
unit cell volume = 91134.8
G =
[   0.195245          0          0  ]
[          0   0.195245          0  ]
[          0          0  0.0713998  ]
Chosen fftbox size, S = [  150  150  400  ]
Integer grid location selected as the embedding center:
   Grid: [  0  0  32  ]
   Lattice: [  0  0  0.159091  ]
   Cartesian: [  0  0  7  ]
Constructing Wigner-Seitz cell: 6 faces (6 quadrilaterals, 0 hexagons)
Range-separation parameter for embedded mesh potentials due to point charges: 0.591727 bohrs.

---------- Setting up ewald sum ----------
Optimum gaussian width for ewald sums = 8.177146 bohr.
Real space sum over 405 unit cells with max indices [  4  4  2  ]
Reciprocal space sum over 8325 terms with max indices [  7  7  18  ]

---------- Allocating electronic variables ----------
Initializing wave functions:  linear combination of atomic orbitals
Ni pseudo-atom occupations:   s ( 2 0 )  p ( 6 0 )  d ( 10 )
S pseudo-atom occupations:   s ( 2 )  p ( 4 )
Na pseudo-atom occupations:   s ( 2 1 )  p ( 6 )
	FillingsUpdate:  mu: -0.985673327  nElectrons: 1110.000000
LCAOMinimize: Iter:   0  F: -6299.1121447369268935  |grad|_K:  3.445e-02  alpha:  1.000e+00
	FillingsUpdate:  mu: +3.219354902  nElectrons: 1110.000000
LCAOMinimize: Iter:   1  F: -6552.9075170620208155  |grad|_K:  1.215e-01  alpha:  2.116e-01  linmin:  9.176e-02  cgtest: -5.986e-01  t[s]:     22.20
LCAOMinimize: 	Bad step direction: g.d > 0.
LCAOMinimize: 	Undoing step.
LCAOMinimize: 	Step failed: resetting search direction.
	FillingsUpdate:  mu: +3.219354902  nElectrons: 1110.000000
LCAOMinimize: Iter:   2  F: -6552.9075170620208155  |grad|_K:  1.215e-01  alpha:  0.000e+00
	FillingsUpdate:  mu: +1.554512845  nElectrons: 1110.000000
LCAOMinimize: Iter:   3  F: -6824.0548186390406045  |grad|_K:  1.455e-01  alpha:  6.632e-02  linmin:  2.142e-01  cgtest: -4.279e-01  t[s]:     33.76
LCAOMinimize: 	Bad step direction: g.d > 0.
LCAOMinimize: 	Undoing step.
LCAOMinimize: 	Step failed: resetting search direction.
	FillingsUpdate:  mu: +1.554512845  nElectrons: 1110.000000
LCAOMinimize: Iter:   4  F: -6824.0548186390406045  |grad|_K:  1.455e-01  alpha:  0.000e+00
	FillingsUpdate:  mu: +0.869562821  nElectrons: 1110.000000
LCAOMinimize: Iter:   5  F: -6949.6867035936020329  |grad|_K:  6.741e-02  alpha:  3.249e-02  linmin:  1.087e-01  cgtest: -9.675e-01  t[s]:     45.46
LCAOMinimize: 	Step increased F by 3.769554e-01, reducing alpha to 5.001975e-03.
	FillingsUpdate:  mu: +0.797797202  nElectrons: 1110.000000
LCAOMinimize: Iter:   6  F: -6953.5196873813320053  |grad|_K:  6.407e-02  alpha:  5.002e-03  linmin: -3.769e-02  cgtest:  1.006e+00  t[s]:     57.15
LCAOMinimize: Encountered beta<0, resetting CG.
LCAOMinimize: 	Wrong curvature in test step, increasing alphaT to 1.500592e-02.
	FillingsUpdate:  mu: +0.668514714  nElectrons: 1110.000000
LCAOMinimize: Iter:   7  F: -6966.0928093519132744  |grad|_K:  6.003e-02  alpha: -1.273e-01  linmin: -2.597e-01  cgtest:  9.072e-01  t[s]:     63.65
LCAOMinimize: 	Step increased F by 1.000540e+03, reducing alpha to 2.755911e-02.
	FillingsUpdate:  mu: +0.256507710  nElectrons: 1110.000000
LCAOMinimize: Iter:   8  F: -6997.6245117548951384  |grad|_K:  6.109e-02  alpha:  2.756e-02  linmin:  1.577e-01  cgtest: -3.423e-01  t[s]:     75.59
	FillingsUpdate:  mu: +0.257605987  nElectrons: 1110.000000
LCAOMinimize: Iter:   9  F: -6997.6310697440758304  |grad|_K:  6.118e-02  alpha:  1.338e-04  linmin: -2.111e-03  cgtest:  9.997e-01  t[s]:     82.49
LCAOMinimize: 	Predicted alpha/alphaT>3.000000, increasing alphaT to 4.014372e-04.
LCAOMinimize: 	Predicted alpha/alphaT>3.000000, increasing alphaT to 1.204311e-03.
LCAOMinimize: 	Predicted alpha/alphaT>3.000000, increasing alphaT to 3.612934e-03.
	FillingsUpdate:  mu: +0.156438696  nElectrons: 1110.000000
LCAOMinimize: Iter:  10  F: -7007.8475966119694931  |grad|_K:  2.061e-02  alpha:  7.787e-03  linmin: -3.864e-01  cgtest:  9.329e-01  t[s]:     93.02
LCAOMinimize: Encountered beta<0, resetting CG.
	FillingsUpdate:  mu: +0.117131498  nElectrons: 1110.000000
LCAOMinimize: Iter:  11  F: -7010.8682942393461417  |grad|_K:  1.146e-02  alpha:  2.261e-02  linmin: -5.199e-02  cgtest: -1.396e-01  t[s]:     99.94
	FillingsUpdate:  mu: +0.054641691  nElectrons: 1110.000000
LCAOMinimize: Iter:  12  F: -7011.9671063687865171  |grad|_K:  1.564e-02  alpha:  3.077e-02  linmin:  9.381e-02  cgtest:  3.108e-01  t[s]:    106.85
	FillingsUpdate:  mu: +0.044469023  nElectrons: 1110.000000
LCAOMinimize: Iter:  13  F: -7012.5328802241538142  |grad|_K:  1.599e-02  alpha:  1.190e-02  linmin: -9.560e-03  cgtest:  8.486e-01  t[s]:    113.76
	FillingsUpdate:  mu: +0.003108645  nElectrons: 1110.000000
LCAOMinimize: Iter:  14  F: -7013.6010438130633702  |grad|_K:  5.869e-03  alpha:  1.359e-02  linmin: -8.468e-02  cgtest:  1.337e-01  t[s]:    120.63
	FillingsUpdate:  mu: -0.006409691  nElectrons: 1110.000000
LCAOMinimize: Iter:  15  F: -7013.8772315419346342  |grad|_K:  3.602e-03  alpha:  2.573e-02  linmin:  1.097e-02  cgtest: -1.009e-01  t[s]:    127.46
	FillingsUpdate:  mu: -0.011828754  nElectrons: 1110.000000
LCAOMinimize: Iter:  16  F: -7014.0443659848224343  |grad|_K:  4.752e-03  alpha:  4.706e-02  linmin:  2.090e-02  cgtest:  3.925e-02  t[s]:    134.30
	FillingsUpdate:  mu: -0.030607575  nElectrons: 1110.000000
LCAOMinimize: Iter:  17  F: -7014.2895001490614959  |grad|_K:  2.707e-03  alpha:  4.169e-02  linmin:  1.870e-03  cgtest:  3.457e-01  t[s]:    141.10
	FillingsUpdate:  mu: -0.045014991  nElectrons: 1110.000000
LCAOMinimize: Iter:  18  F: -7014.3356996609427370  |grad|_K:  1.779e-03  alpha:  2.179e-02  linmin:  7.525e-03  cgtest: -3.921e-02  t[s]:    147.90
	FillingsUpdate:  mu: -0.059847068  nElectrons: 1110.000000
LCAOMinimize: Iter:  19  F: -7014.3695064809535324  |grad|_K:  1.625e-03  alpha:  3.616e-02  linmin:  4.318e-04  cgtest:  4.329e-02  t[s]:    154.66
	FillingsUpdate:  mu: -0.061823966  nElectrons: 1110.000000
LCAOMinimize: Iter:  20  F: -7014.3960974203555452  |grad|_K:  1.773e-03  alpha:  3.359e-02  linmin: -6.178e-04  cgtest: -1.845e-02  t[s]:    161.50
	FillingsUpdate:  mu: -0.060826035  nElectrons: 1110.000000
LCAOMinimize: Iter:  21  F: -7014.4453446245815940  |grad|_K:  1.382e-03  alpha:  5.254e-02  linmin:  4.630e-03  cgtest:  5.701e-02  t[s]:    168.31
	FillingsUpdate:  mu: -0.065249685  nElectrons: 1110.000000
LCAOMinimize: Iter:  22  F: -7014.4568121594411423  |grad|_K:  7.024e-04  alpha:  2.040e-02  linmin: -1.456e-03  cgtest:  1.008e-01  t[s]:    175.20
	FillingsUpdate:  mu: -0.066100008  nElectrons: 1110.000000
LCAOMinimize: Iter:  23  F: -7014.4622959352327598  |grad|_K:  5.005e-04  alpha:  3.695e-02  linmin:  1.600e-03  cgtest: -2.056e-02  t[s]:    182.07
	FillingsUpdate:  mu: -0.069318203  nElectrons: 1110.000000
LCAOMinimize: Iter:  24  F: -7014.4645061819228431  |grad|_K:  3.978e-04  alpha:  2.949e-02  linmin:  2.206e-04  cgtest:  1.331e-02  t[s]:    189.45
	FillingsUpdate:  mu: -0.069986531  nElectrons: 1110.000000
LCAOMinimize: Iter:  25  F: -7014.4657283316664689  |grad|_K:  3.057e-04  alpha:  2.573e-02  linmin:  2.358e-04  cgtest: -5.371e-04  t[s]:    196.47
	FillingsUpdate:  mu: -0.069973611  nElectrons: 1110.000000
LCAOMinimize: Iter:  26  F: -7014.4673760944624519  |grad|_K:  3.611e-04  alpha:  5.895e-02  linmin:  6.239e-04  cgtest: -4.270e-04  t[s]:    203.52
	FillingsUpdate:  mu: -0.072016939  nElectrons: 1110.000000
LCAOMinimize: Iter:  27  F: -7014.4684005186372815  |grad|_K:  2.472e-04  alpha:  2.608e-02  linmin: -7.497e-04  cgtest:  2.667e-02  t[s]:    210.60
	FillingsUpdate:  mu: -0.071979990  nElectrons: 1110.000000
LCAOMinimize: Iter:  28  F: -7014.4690524902171092  |grad|_K:  1.847e-04  alpha:  3.535e-02  linmin:  1.903e-04  cgtest: -1.630e-02  t[s]:    217.69
	FillingsUpdate:  mu: -0.072669593  nElectrons: 1110.000000
LCAOMinimize: Iter:  29  F: -7014.4696262381003180  |grad|_K:  2.147e-04  alpha:  5.610e-02  linmin:  3.998e-05  cgtest:  6.549e-03  t[s]:    224.81
	FillingsUpdate:  mu: -0.072177636  nElectrons: 1110.000000
LCAOMinimize: Iter:  30  F: -7014.4701544348563402  |grad|_K:  1.664e-04  alpha:  3.819e-02  linmin: -3.486e-06  cgtest:  3.517e-04  t[s]:    231.92
LCAOMinimize: None of the convergence criteria satisfied after 30 iterations.
----- createFluidSolver() ----- (Fluid-side solver setup)
   Initializing fluid molecule 'PC'
     Net charge: 0   dipole magnitude: 0
     Initializing spherical shell mfKernel with radius 0 Bohr
     deltaS corrections:

Correction to mu due to finite nuclear width = -0.0120848
   Cavity determined by nc: 0.00098 and sigma: 0.6
   Effective cavity tension: 9.53e-06 Eh/bohr^2 to account for cavitation and dispersion.


---- Citations for features of the code used in this run ----

   Software package:
      R. Sundararaman, K. Letchworth-Weaver, K.A. Schwarz, D. Gunceler, Y. Ozhabes and T.A. Arias, 'JDFTx: software for joint density-functional theory', SoftwareX 6, 278 (2017)

   gga-PBE exchange-correlation functional:
      J.P. Perdew, K. Burke and M. Ernzerhof, Phys. Rev. Lett. 77, 3865 (1996)

   Pseudopotentials:
      KF Garrity, JW Bennett, KM Rabe and D Vanderbilt, Comput. Mater. Sci. 81, 446 (2014)

   Truncated Coulomb potentials:
      R. Sundararaman and T.A. Arias, Phys. Rev. B 87, 165122 (2013)

   Linear/nonlinear dielectric/ionic fluid model with effective cavity tension:
      D. Gunceler, K. Letchworth-Weaver, R. Sundararaman, K.A. Schwarz and T.A. Arias, Modelling Simul. Mater. Sci. Eng. 21, 074005 (2013)

   Total energy minimization with Auxiliary Hamiltonian:
      C. Freysoldt, S. Boeck, and J. Neugebauer, Phys. Rev. B 79, 241103(R) (2009)

This list may not be complete. Please suggest additional citations or
report any other bugs at https://github.com/shankar1729/jdftx/issues

Initialization completed successfully at t[s]:    233.76

Fluid solver invoked on fresh (random / LCAO) wavefunctions
Running a vacuum solve first:

-------- Initial electronic minimization -----------
	FillingsUpdate:  mu: -0.072177636  nElectrons: 1110.000000
ElecMinimize: Iter:   0  F: -7014.470154434813594  |grad|_K:  2.025e-04  alpha:  1.000e+00
	FillingsUpdate:  mu: -0.112145739  nElectrons: 1110.000000
	SubspaceRotationAdjust: set factor to 0.668
ElecMinimize: Iter:   1  F: -7016.340252106685512  |grad|_K:  3.052e-04  alpha:  2.942e-01  linmin: -9.888e-06  t[s]:    253.42
ElecMinimize: 	Step increased F by 2.345041e-02, reducing alpha to 5.490455e-03.
	FillingsUpdate:  mu: -0.117211172  nElectrons: 1110.000000
	SubspaceRotationAdjust: set factor to 0.649
ElecMinimize: Iter:   2  F: -7016.478582890033067  |grad|_K:  2.163e-04  alpha:  5.490e-03  linmin: -3.261e-04  t[s]:    273.19
ElecMinimize: 	Predicted alpha/alphaT>3.000000, increasing alphaT to 1.647136e-02.
	FillingsUpdate:  mu: -0.068237637  nElectrons: 1110.000000
	SubspaceRotationAdjust: set factor to 0.421
ElecMinimize: Iter:   3  F: -7016.816307794883869  |grad|_K:  2.670e-04  alpha:  2.619e-02  linmin: -4.608e-05  t[s]:    288.37
	FillingsUpdate:  mu: +0.008436184  nElectrons: 1110.000000
	SubspaceRotationAdjust: set factor to 0.231
ElecMinimize: Iter:   4  F: -7017.297088833208363  |grad|_K:  3.463e-04  alpha:  3.904e-02  linmin: -3.811e-05  t[s]:    300.44
	FillingsUpdate:  mu: +0.050096910  nElectrons: 1110.000000
	SubspaceRotationAdjust: set factor to 0.176
ElecMinimize: Iter:   5  F: -7017.889675584689940  |grad|_K:  2.308e-04  alpha:  3.065e-02  linmin: -1.455e-07  t[s]:    312.40
	FillingsUpdate:  mu: +0.016692166  nElectrons: 1110.000000
	SubspaceRotationAdjust: set factor to 0.239
ElecMinimize: Iter:   6  F: -7018.200940200719742  |grad|_K:  1.760e-04  alpha:  3.878e-02  linmin:  2.794e-06  t[s]:    324.41
	FillingsUpdate:  mu: -0.002355598  nElectrons: 1110.000000
	SubspaceRotationAdjust: set factor to 0.184
ElecMinimize: Iter:   7  F: -7018.432734895213798  |grad|_K:  1.843e-04  alpha:  5.007e-02  linmin:  1.063e-06  t[s]:    336.38
	FillingsUpdate:  mu: -0.053207339  nElectrons: 1110.000000
	SubspaceRotationAdjust: set factor to 0.118
	SubspaceRotationAdjust: resetting CG because factor has changed by 0.118088
ElecMinimize: 	State modified externally: resetting search direction.
ElecMinimize: Iter:   8  F: -7018.670764631017846  |grad|_K:  1.358e-04  alpha:  4.651e-02
ElecMinimize: 	Predicted alpha/alphaT>3.000000, increasing alphaT to 1.395370e-01.
	FillingsUpdate:  mu: -0.052170299  nElectrons: 1110.000000
	SubspaceRotationAdjust: set factor to 0.0834
ElecMinimize: Iter:   9  F: -7019.186647880612327  |grad|_K:  7.955e-05  alpha:  1.846e-01  linmin: -2.967e-04  t[s]:    369.60
	FillingsUpdate:  mu: -0.097518945  nElectrons: 1110.000000
	SubspaceRotationAdjust: set factor to 0.0906
ElecMinimize: Iter:  10  F: -7019.487876340253933  |grad|_K:  6.817e-05  alpha:  3.139e-01  linmin:  1.304e-04  t[s]:    381.60
	FillingsUpdate:  mu: -0.103045130  nElectrons: 1110.000000
	SubspaceRotationAdjust: set factor to 0.0965
ElecMinimize: Iter:  11  F: -7019.703711636948356  |grad|_K:  2.826e-05  alpha:  3.107e-01  linmin:  6.588e-05  t[s]:    393.62
	FillingsUpdate:  mu: -0.107364305  nElectrons: 1110.000000
	SubspaceRotationAdjust: set factor to 0.0953
ElecMinimize: Iter:  12  F: -7019.769954186238465  |grad|_K:  3.338e-05  alpha:  5.527e-01  linmin:  7.653e-05  t[s]:    405.67
	FillingsUpdate:  mu: -0.106018784  nElectrons: 1110.000000
	SubspaceRotationAdjust: set factor to 0.108
ElecMinimize: Iter:  13  F: -7019.811730530710520  |grad|_K:  1.731e-05  alpha:  2.528e-01  linmin:  4.033e-05  t[s]:    417.67
	FillingsUpdate:  mu: -0.104892401  nElectrons: 1110.000000
	SubspaceRotationAdjust: set factor to 0.117
ElecMinimize: Iter:  14  F: -7019.831974714349599  |grad|_K:  1.701e-05  alpha:  4.500e-01  linmin:  1.015e-05  t[s]:    429.70
	FillingsUpdate:  mu: -0.107574583  nElectrons: 1110.000000
	SubspaceRotationAdjust: set factor to 0.131
ElecMinimize: Iter:  15  F: -7019.846213983905727  |grad|_K:  1.537e-05  alpha:  3.271e-01  linmin:  6.557e-06  t[s]:    441.69
	FillingsUpdate:  mu: -0.107643714  nElectrons: 1110.000000
	SubspaceRotationAdjust: set factor to 0.134
ElecMinimize: Iter:  16  F: -7019.863400436135635  |grad|_K:  1.657e-05  alpha:  4.824e-01  linmin: -4.719e-06  t[s]:    453.67
	FillingsUpdate:  mu: -0.107072576  nElectrons: 1110.000000
	SubspaceRotationAdjust: set factor to 0.123
ElecMinimize: Iter:  17  F: -7019.876925380281136  |grad|_K:  1.515e-05  alpha:  3.266e-01  linmin: -2.584e-06  t[s]:    465.71
	FillingsUpdate:  mu: -0.107997427  nElectrons: 1110.000000
	SubspaceRotationAdjust: set factor to 0.113
ElecMinimize: Iter:  18  F: -7019.886201554521904  |grad|_K:  1.361e-05  alpha:  2.672e-01  linmin: -2.237e-06  t[s]:    477.69
	FillingsUpdate:  mu: -0.109129727  nElectrons: 1110.000000
	SubspaceRotationAdjust: set factor to 0.11
ElecMinimize: Iter:  19  F: -7019.899914602809986  |grad|_K:  1.149e-05  alpha:  4.905e-01  linmin:  4.523e-06  t[s]:    489.79
	FillingsUpdate:  mu: -0.107338323  nElectrons: 1110.000000
	SubspaceRotationAdjust: set factor to 0.108
ElecMinimize: Iter:  20  F: -7019.905615318693890  |grad|_K:  8.844e-06  alpha:  2.887e-01  linmin: -1.141e-06  t[s]:    501.83
	FillingsUpdate:  mu: -0.108322811  nElectrons: 1110.000000
	SubspaceRotationAdjust: set factor to 0.103
ElecMinimize: Iter:  21  F: -7019.910169886193216  |grad|_K:  6.969e-06  alpha:  3.851e-01  linmin: -7.416e-07  t[s]:    513.93
	FillingsUpdate:  mu: -0.109117369  nElectrons: 1110.000000
	SubspaceRotationAdjust: set factor to 0.0888
ElecMinimize: Iter:  22  F: -7019.912591838824483  |grad|_K:  6.132e-06  alpha:  3.300e-01  linmin:  1.442e-06  t[s]:    526.07
	FillingsUpdate:  mu: -0.108050895  nElectrons: 1110.000000
	SubspaceRotationAdjust: set factor to 0.0914
ElecMinimize: Iter:  23  F: -7019.914136810225500  |grad|_K:  3.854e-06  alpha:  2.725e-01  linmin:  1.464e-06  t[s]:    538.17
	FillingsUpdate:  mu: -0.108093683  nElectrons: 1110.000000
	SubspaceRotationAdjust: set factor to 0.0944
ElecMinimize: Iter:  24  F: -7019.914983749632484  |grad|_K:  3.003e-06  alpha:  3.779e-01  linmin:  3.736e-06  t[s]:    550.20
	FillingsUpdate:  mu: -0.108145367  nElectrons: 1110.000000
	SubspaceRotationAdjust: set factor to 0.0987
ElecMinimize: Iter:  25  F: -7019.915470244095559  |grad|_K:  2.731e-06  alpha:  3.580e-01  linmin:  4.869e-06  t[s]:    562.35
	FillingsUpdate:  mu: -0.107837902  nElectrons: 1110.000000
	SubspaceRotationAdjust: set factor to 0.111
ElecMinimize: Iter:  26  F: -7019.915787274373542  |grad|_K:  1.705e-06  alpha:  2.823e-01  linmin:  7.463e-06  t[s]:    574.60
	FillingsUpdate:  mu: -0.107997376  nElectrons: 1110.000000
	SubspaceRotationAdjust: set factor to 0.129
ElecMinimize: Iter:  27  F: -7019.915991776489136  |grad|_K:  1.785e-06  alpha:  4.672e-01  linmin:  6.155e-06  t[s]:    586.88
	FillingsUpdate:  mu: -0.107860858  nElectrons: 1110.000000
	SubspaceRotationAdjust: set factor to 0.14
ElecMinimize: Iter:  28  F: -7019.916144385731968  |grad|_K:  1.554e-06  alpha:  3.185e-01  linmin:  4.876e-06  t[s]:    598.96
	FillingsUpdate:  mu: -0.107783136  nElectrons: 1110.000000
	SubspaceRotationAdjust: set factor to 0.148
ElecMinimize: Iter:  29  F: -7019.916270009961409  |grad|_K:  1.565e-06  alpha:  3.458e-01  linmin:  3.151e-06  t[s]:    611.10
	FillingsUpdate:  mu: -0.107815898  nElectrons: 1110.000000
	SubspaceRotationAdjust: set factor to 0.156
ElecMinimize: Iter:  30  F: -7019.916389423513465  |grad|_K:  1.395e-06  alpha:  3.241e-01  linmin:  2.075e-06  t[s]:    623.24
	FillingsUpdate:  mu: -0.107717189  nElectrons: 1110.000000
	SubspaceRotationAdjust: set factor to 0.162
ElecMinimize: Iter:  31  F: -7019.916496717848531  |grad|_K:  1.397e-06  alpha:  3.661e-01  linmin:  7.422e-07  t[s]:    635.41
	FillingsUpdate:  mu: -0.107722331  nElectrons: 1110.000000
	SubspaceRotationAdjust: set factor to 0.163
ElecMinimize: Iter:  32  F: -7019.916592020899770  |grad|_K:  1.191e-06  alpha:  3.238e-01  linmin: -8.660e-08  t[s]:    647.42
	FillingsUpdate:  mu: -0.107606312  nElectrons: 1110.000000
	SubspaceRotationAdjust: set factor to 0.145
ElecMinimize: Iter:  33  F: -7019.916656466313725  |grad|_K:  1.199e-06  alpha:  3.008e-01  linmin: -3.196e-07  t[s]:    659.52
	FillingsUpdate:  mu: -0.107748654  nElectrons: 1110.000000
	SubspaceRotationAdjust: set factor to 0.127
ElecMinimize: Iter:  34  F: -7019.916711646520525  |grad|_K:  9.334e-07  alpha:  2.541e-01  linmin: -2.707e-07  t[s]:    671.51
	FillingsUpdate:  mu: -0.107621960  nElectrons: 1110.000000
	SubspaceRotationAdjust: set factor to 0.128
ElecMinimize: Iter:  35  F: -7019.916760235441870  |grad|_K:  7.483e-07  alpha:  3.689e-01  linmin:  1.167e-07  t[s]:    683.60
	FillingsUpdate:  mu: -0.107686043  nElectrons: 1110.000000
	SubspaceRotationAdjust: set factor to 0.127
ElecMinimize: Iter:  36  F: -7019.916786995271650  |grad|_K:  6.470e-07  alpha:  3.165e-01  linmin:  7.754e-07  t[s]:    695.61
	FillingsUpdate:  mu: -0.107692025  nElectrons: 1110.000000
	SubspaceRotationAdjust: set factor to 0.129
ElecMinimize: Iter:  37  F: -7019.916806012284724  |grad|_K:  5.089e-07  alpha:  3.012e-01  linmin:  1.339e-06  t[s]:    707.71
	FillingsUpdate:  mu: -0.107622962  nElectrons: 1110.000000
	SubspaceRotationAdjust: set factor to 0.134
ElecMinimize: Iter:  38  F: -7019.916818286986199  |grad|_K:  4.237e-07  alpha:  3.145e-01  linmin:  1.727e-06  t[s]:    719.74
	FillingsUpdate:  mu: -0.107679476  nElectrons: 1110.000000
	SubspaceRotationAdjust: set factor to 0.143
ElecMinimize: Iter:  39  F: -7019.916825919245639  |grad|_K:  3.610e-07  alpha:  2.822e-01  linmin:  1.722e-06  t[s]:    731.78
	FillingsUpdate:  mu: -0.107702134  nElectrons: 1110.000000
	SubspaceRotationAdjust: set factor to 0.162
ElecMinimize: Iter:  40  F: -7019.916832935432467  |grad|_K:  3.106e-07  alpha:  3.575e-01  linmin:  2.220e-06  t[s]:    743.80
	FillingsUpdate:  mu: -0.107691471  nElectrons: 1110.000000
	SubspaceRotationAdjust: set factor to 0.193
ElecMinimize: Iter:  41  F: -7019.916837557830149  |grad|_K:  2.791e-07  alpha:  3.184e-01  linmin:  1.350e-06  t[s]:    755.79
	FillingsUpdate:  mu: -0.107706786  nElectrons: 1110.000000
	SubspaceRotationAdjust: set factor to 0.222
ElecMinimize: Iter:  42  F: -7019.916841751578431  |grad|_K:  2.743e-07  alpha:  3.575e-01  linmin:  1.099e-06  t[s]:    767.81
	FillingsUpdate:  mu: -0.107738274  nElectrons: 1110.000000
	SubspaceRotationAdjust: set factor to 0.236
ElecMinimize: Iter:  43  F: -7019.916845160491903  |grad|_K:  2.867e-07  alpha:  3.008e-01  linmin:  3.626e-07  t[s]:    779.87
	FillingsUpdate:  mu: -0.107720074  nElectrons: 1110.000000
	SubspaceRotationAdjust: set factor to 0.211
ElecMinimize: Iter:  44  F: -7019.916847902364680  |grad|_K:  2.818e-07  alpha:  2.211e-01  linmin:  1.140e-07  t[s]:    791.88
	FillingsUpdate:  mu: -0.107720474  nElectrons: 1110.000000
	SubspaceRotationAdjust: set factor to 0.191
ElecMinimize: Iter:  45  F: -7019.916850258249724  |grad|_K:  2.254e-07  alpha:  1.965e-01  linmin:  1.919e-08  t[s]:    803.93
	FillingsUpdate:  mu: -0.107745233  nElectrons: 1110.000000
	SubspaceRotationAdjust: set factor to 0.183
ElecMinimize: Iter:  46  F: -7019.916852446978737  |grad|_K:  2.112e-07  alpha:  2.853e-01  linmin: -3.310e-08  t[s]:    815.98
	FillingsUpdate:  mu: -0.107759863  nElectrons: 1110.000000
	SubspaceRotationAdjust: set factor to 0.169
ElecMinimize: Iter:  47  F: -7019.916854174947730  |grad|_K:  1.724e-07  alpha:  2.563e-01  linmin: -2.073e-08  t[s]:    828.06
	FillingsUpdate:  mu: -0.107747861  nElectrons: 1110.000000
	SubspaceRotationAdjust: set factor to 0.164
ElecMinimize: Iter:  48  F: -7019.916855524880702  |grad|_K:  1.498e-07  alpha:  3.007e-01  linmin: -9.048e-09  t[s]:    840.12
	FillingsUpdate:  mu: -0.107745967  nElectrons: 1110.000000
	SubspaceRotationAdjust: set factor to 0.171
ElecMinimize: Iter:  49  F: -7019.916856543846734  |grad|_K:  1.197e-07  alpha:  3.007e-01  linmin:  2.383e-07  t[s]:    852.13
	FillingsUpdate:  mu: -0.107746190  nElectrons: 1110.000000
	SubspaceRotationAdjust: set factor to 0.162
ElecMinimize: Iter:  50  F: -7019.916857185275148  |grad|_K:  1.220e-07  alpha:  2.967e-01  linmin:  2.387e-07  t[s]:    864.12
	FillingsUpdate:  mu: -0.107737900  nElectrons: 1110.000000
	SubspaceRotationAdjust: set factor to 0.155
ElecMinimize: Iter:  51  F: -7019.916857685481773  |grad|_K:  8.983e-08  alpha:  2.227e-01  linmin:  4.924e-07  t[s]:    876.11
	FillingsUpdate:  mu: -0.107742569  nElectrons: 1110.000000
	SubspaceRotationAdjust: set factor to 0.18
ElecMinimize: Iter:  52  F: -7019.916858064531880  |grad|_K:  7.974e-08  alpha:  3.117e-01  linmin:  3.727e-07  t[s]:    888.14
	FillingsUpdate:  mu: -0.107746368  nElectrons: 1110.000000
	SubspaceRotationAdjust: set factor to 0.22
ElecMinimize: Iter:  53  F: -7019.916858364328618  |grad|_K:  6.792e-08  alpha:  3.129e-01  linmin:  4.523e-07  t[s]:    900.19
	FillingsUpdate:  mu: -0.107736839  nElectrons: 1110.000000
	SubspaceRotationAdjust: set factor to 0.219
ElecMinimize: Iter:  54  F: -7019.916858609373776  |grad|_K:  7.408e-08  alpha:  3.525e-01  linmin:  3.031e-07  t[s]:    912.26
	FillingsUpdate:  mu: -0.107732241  nElectrons: 1110.000000
	SubspaceRotationAdjust: set factor to 0.214
ElecMinimize: Iter:  55  F: -7019.916858783586576  |grad|_K:  7.064e-08  alpha:  2.107e-01  linmin:  1.146e-07  t[s]:    924.33
	FillingsUpdate:  mu: -0.107733580  nElectrons: 1110.000000
	SubspaceRotationAdjust: set factor to 0.227
ElecMinimize: Iter:  56  F: -7019.916858952000439  |grad|_K:  6.179e-08  alpha:  2.236e-01  linmin:  9.638e-08  t[s]:    936.35
	FillingsUpdate:  mu: -0.107732948  nElectrons: 1110.000000
	SubspaceRotationAdjust: set factor to 0.23
ElecMinimize: Iter:  57  F: -7019.916859107035634  |grad|_K:  5.984e-08  alpha:  2.693e-01  linmin:  8.036e-08  t[s]:    948.46
	FillingsUpdate:  mu: -0.107730221  nElectrons: 1110.000000
	SubspaceRotationAdjust: set factor to 0.227
ElecMinimize: Iter:  58  F: -7019.916859232524985  |grad|_K:  4.998e-08  alpha:  2.324e-01  linmin:  4.602e-08  t[s]:    960.43
	FillingsUpdate:  mu: -0.107728498  nElectrons: 1110.000000
	SubspaceRotationAdjust: set factor to 0.215
ElecMinimize: Iter:  59  F: -7019.916859344564728  |grad|_K:  5.007e-08  alpha:  2.971e-01  linmin:  2.943e-08  t[s]:    972.45
	FillingsUpdate:  mu: -0.107732810  nElectrons: 1110.000000
	SubspaceRotationAdjust: set factor to 0.184
ElecMinimize: Iter:  60  F: -7019.916859417229716  |grad|_K:  4.196e-08  alpha:  1.924e-01  linmin:  2.337e-08  t[s]:    984.36
	FillingsUpdate:  mu: -0.107729988  nElectrons: 1110.000000
	SubspaceRotationAdjust: set factor to 0.17
ElecMinimize: Iter:  61  F: -7019.916859482828841  |grad|_K:  3.872e-08  alpha:  2.463e-01  linmin:  3.840e-08  t[s]:    996.43
	FillingsUpdate:  mu: -0.107728075  nElectrons: 1110.000000
	SubspaceRotationAdjust: set factor to 0.162
ElecMinimize: Iter:  62  F: -7019.916859534760079  |grad|_K:  3.113e-08  alpha:  2.302e-01  linmin:  7.512e-08  t[s]:   1008.49
	FillingsUpdate:  mu: -0.107728653  nElectrons: 1110.000000
	SubspaceRotationAdjust: set factor to 0.18
ElecMinimize: Iter:  63  F: -7019.916859576958814  |grad|_K:  2.689e-08  alpha:  2.892e-01  linmin:  2.682e-07  t[s]:   1020.52
	FillingsUpdate:  mu: -0.107729264  nElectrons: 1110.000000
	SubspaceRotationAdjust: set factor to 0.185
ElecMinimize: Iter:  64  F: -7019.916859606021717  |grad|_K:  2.570e-08  alpha:  2.681e-01  linmin:  2.740e-07  t[s]:   1032.56
	FillingsUpdate:  mu: -0.107731545  nElectrons: 1110.000000
	SubspaceRotationAdjust: set factor to 0.193
ElecMinimize: Iter:  65  F: -7019.916859628699967  |grad|_K:  2.219e-08  alpha:  2.297e-01  linmin:  3.067e-07  t[s]:   1044.70
	FillingsUpdate:  mu: -0.107729868  nElectrons: 1110.000000
	SubspaceRotationAdjust: set factor to 0.227
ElecMinimize: Iter:  66  F: -7019.916859647322781  |grad|_K:  1.987e-08  alpha:  2.535e-01  linmin:  6.043e-07  t[s]:   1056.73
	FillingsUpdate:  mu: -0.107729695  nElectrons: 1110.000000
	SubspaceRotationAdjust: set factor to 0.264
ElecMinimize: Iter:  67  F: -7019.916859664863296  |grad|_K:  1.868e-08  alpha:  2.996e-01  linmin:  6.087e-08  t[s]:   1068.82
	FillingsUpdate:  mu: -0.107732591  nElectrons: 1110.000000
	SubspaceRotationAdjust: set factor to 0.225
ElecMinimize: Iter:  68  F: -7019.916859678503897  |grad|_K:  2.113e-08  alpha:  2.563e-01  linmin:  7.764e-08  t[s]:   1080.85
	FillingsUpdate:  mu: -0.107731086  nElectrons: 1110.000000
	SubspaceRotationAdjust: set factor to 0.207
ElecMinimize: Iter:  69  F: -7019.916859688789373  |grad|_K:  1.728e-08  alpha:  1.533e-01  linmin: -1.729e-08  t[s]:   1092.97
	FillingsUpdate:  mu: -0.107731277  nElectrons: 1110.000000
	SubspaceRotationAdjust: set factor to 0.25
ElecMinimize: Iter:  70  F: -7019.916859700782879  |grad|_K:  1.496e-08  alpha:  2.675e-01  linmin: -1.747e-07  t[s]:   1104.98
	FillingsUpdate:  mu: -0.107733138  nElectrons: 1110.000000
	SubspaceRotationAdjust: set factor to 0.252
ElecMinimize: Iter:  71  F: -7019.916859709778691  |grad|_K:  1.547e-08  alpha:  2.661e-01  linmin:  1.291e-07  t[s]:   1117.02
	FillingsUpdate:  mu: -0.107732172  nElectrons: 1110.000000
	SubspaceRotationAdjust: set factor to 0.217
ElecMinimize: Iter:  72  F: -7019.916859716448926  |grad|_K:  1.506e-08  alpha:  1.792e-01  linmin:  6.947e-08  t[s]:   1129.15
ElecMinimize: Converged (|Delta F|<1.000000e-08 for 2 iters).
Setting wave functions to eigenvectors of Hamiltonian
Vacuum energy after initial minimize, F = -7019.916859716448926


-------- Electronic minimization -----------
	Linear fluid (dielectric constant: 64) occupying 0.820747 of unit cell:	Completed after 41 iterations at t[s]:   1131.56
	FillingsUpdate:  mu: -0.105541745  nElectrons: 1110.000000
ElecMinimize: Iter:   0  F: -7020.102673440913350  |grad|_K:  3.325e-05  alpha:  1.000e+00
	Linear fluid (dielectric constant: 64) occupying 0.820913 of unit cell:	Completed after 41 iterations at t[s]:   1142.21
	Linear fluid (dielectric constant: 64) occupying 0.820770 of unit cell:	Completed after 39 iterations at t[s]:   1146.23
	FillingsUpdate:  mu: -0.112941468  nElectrons: 1110.000000
	SubspaceRotationAdjust: set factor to 0.181
ElecMinimize: Iter:   1  F: -7020.142661280320681  |grad|_K:  2.891e-05  alpha:  2.287e-01  linmin: -6.058e-04  t[s]:   1151.31
	Linear fluid (dielectric constant: 64) occupying 0.820905 of unit cell:	Completed after 27 iterations at t[s]:   1155.99
	Linear fluid (dielectric constant: 64) occupying 0.820939 of unit cell:	Completed after 20 iterations at t[s]:   1159.66
	FillingsUpdate:  mu: -0.108568397  nElectrons: 1110.000000
	SubspaceRotationAdjust: set factor to 0.203
ElecMinimize: Iter:   2  F: -7020.179674987218277  |grad|_K:  2.350e-05  alpha:  2.812e-01  linmin: -8.990e-05  t[s]:   1164.69
	Linear fluid (dielectric constant: 64) occupying 0.821169 of unit cell:	Completed after 30 iterations at t[s]:   1169.39
	Linear fluid (dielectric constant: 64) occupying 0.821407 of unit cell:	Completed after 30 iterations at t[s]:   1173.24
	FillingsUpdate:  mu: -0.100274554  nElectrons: 1110.000000
	SubspaceRotationAdjust: set factor to 0.227
ElecMinimize: Iter:   3  F: -7020.226383332431396  |grad|_K:  2.120e-05  alpha:  5.501e-01  linmin: -1.122e-04  t[s]:   1178.34
	Linear fluid (dielectric constant: 64) occupying 0.821902 of unit cell:	Completed after 33 iterations at t[s]:   1183.15
	Linear fluid (dielectric constant: 64) occupying 0.821647 of unit cell:	Completed after 29 iterations at t[s]:   1187.01
	FillingsUpdate:  mu: -0.100254617  nElectrons: 1110.000000
	SubspaceRotationAdjust: set factor to 0.213
ElecMinimize: Iter:   4  F: -7020.244226288038590  |grad|_K:  1.921e-05  alpha:  2.587e-01  linmin: -8.198e-06  t[s]:   1192.04
	Linear fluid (dielectric constant: 64) occupying 0.821843 of unit cell:	Completed after 29 iterations at t[s]:   1196.74
	Linear fluid (dielectric constant: 64) occupying 0.821902 of unit cell:	Completed after 23 iterations at t[s]:   1200.49
	FillingsUpdate:  mu: -0.098250416  nElectrons: 1110.000000
	SubspaceRotationAdjust: set factor to 0.178
ElecMinimize: Iter:   5  F: -7020.263723669299907  |grad|_K:  1.815e-05  alpha:  3.488e-01  linmin: -2.499e-05  t[s]:   1208.35
	Linear fluid (dielectric constant: 64) occupying 0.822052 of unit cell:	Completed after 30 iterations at t[s]:   1217.20
	Linear fluid (dielectric constant: 64) occupying 0.822007 of unit cell:	Completed after 24 iterations at t[s]:   1220.95
	FillingsUpdate:  mu: -0.094420502  nElectrons: 1110.000000
	SubspaceRotationAdjust: set factor to 0.163
ElecMinimize: Iter:   6  F: -7020.274548013884669  |grad|_K:  1.349e-05  alpha:  2.172e-01  linmin: -4.529e-06  t[s]:   1225.94
	Linear fluid (dielectric constant: 64) occupying 0.822024 of unit cell:	Completed after 19 iterations at t[s]:   1230.48
	Linear fluid (dielectric constant: 64) occupying 0.822025 of unit cell:	Completed after 19 iterations at t[s]:   1234.12
	FillingsUpdate:  mu: -0.095445863  nElectrons: 1110.000000
	SubspaceRotationAdjust: set factor to 0.154
ElecMinimize: Iter:   7  F: -7020.285435937971670  |grad|_K:  1.167e-05  alpha:  3.946e-01  linmin: -2.046e-05  t[s]:   1239.11
	Linear fluid (dielectric constant: 64) occupying 0.821995 of unit cell:	Completed after 26 iterations at t[s]:   1243.82
	Linear fluid (dielectric constant: 64) occupying 0.822011 of unit cell:	Completed after 18 iterations at t[s]:   1247.39
	FillingsUpdate:  mu: -0.096962513  nElectrons: 1110.000000
	SubspaceRotationAdjust: set factor to 0.146
ElecMinimize: Iter:   8  F: -7020.290523123225285  |grad|_K:  9.406e-06  alpha:  2.457e-01  linmin: -3.107e-06  t[s]:   1252.52
	Linear fluid (dielectric constant: 64) occupying 0.822011 of unit cell:	Completed after 24 iterations at t[s]:   1257.16
	Linear fluid (dielectric constant: 64) occupying 0.822007 of unit cell:	Completed after 22 iterations at t[s]:   1260.86
	FillingsUpdate:  mu: -0.093658909  nElectrons: 1110.000000
	SubspaceRotationAdjust: set factor to 0.127
ElecMinimize: Iter:   9  F: -7020.296302427650517  |grad|_K:  7.011e-06  alpha:  4.307e-01  linmin: -3.062e-05  t[s]:   1265.89
	Linear fluid (dielectric constant: 64) occupying 0.822002 of unit cell:	Completed after 24 iterations at t[s]:   1270.60
	Linear fluid (dielectric constant: 64) occupying 0.822003 of unit cell:	Completed after 12 iterations at t[s]:   1274.12
	FillingsUpdate:  mu: -0.093765743  nElectrons: 1110.000000
	SubspaceRotationAdjust: set factor to 0.125
ElecMinimize: Iter:  10  F: -7020.298999205740074  |grad|_K:  6.490e-06  alpha:  3.602e-01  linmin: -2.864e-06  t[s]:   1279.19
	Linear fluid (dielectric constant: 64) occupying 0.822016 of unit cell:	Completed after 22 iterations at t[s]:   1283.76
	Linear fluid (dielectric constant: 64) occupying 0.822015 of unit cell:	Completed after 11 iterations at t[s]:   1287.28
	FillingsUpdate:  mu: -0.092712315  nElectrons: 1110.000000
	SubspaceRotationAdjust: set factor to 0.117
ElecMinimize: Iter:  11  F: -7020.301046817278802  |grad|_K:  4.992e-06  alpha:  3.215e-01  linmin:  1.611e-06  t[s]:   1292.32
	Linear fluid (dielectric constant: 64) occupying 0.822031 of unit cell:	Completed after 18 iterations at t[s]:   1296.80
	Linear fluid (dielectric constant: 64) occupying 0.822034 of unit cell:	Completed after 7 iterations at t[s]:   1300.27
	FillingsUpdate:  mu: -0.092370281  nElectrons: 1110.000000
	SubspaceRotationAdjust: set factor to 0.121
ElecMinimize: Iter:  12  F: -7020.302500924612104  |grad|_K:  4.244e-06  alpha:  3.864e-01  linmin: -7.201e-06  t[s]:   1305.30
	Linear fluid (dielectric constant: 64) occupying 0.822056 of unit cell:	Completed after 15 iterations at t[s]:   1309.72
	Linear fluid (dielectric constant: 64) occupying 0.822054 of unit cell:	Completed after 5 iterations at t[s]:   1313.15
	FillingsUpdate:  mu: -0.093122251  nElectrons: 1110.000000
	SubspaceRotationAdjust: set factor to 0.121
ElecMinimize: Iter:  13  F: -7020.303453118772268  |grad|_K:  3.827e-06  alpha:  3.491e-01  linmin: -5.545e-06  t[s]:   1318.14
	Linear fluid (dielectric constant: 64) occupying 0.822075 of unit cell:	Completed after 18 iterations at t[s]:   1322.64
	Linear fluid (dielectric constant: 64) occupying 0.822075 of unit cell:	Completed after 0 iterations at t[s]:   1325.94
	FillingsUpdate:  mu: -0.092831947  nElectrons: 1110.000000
	SubspaceRotationAdjust: set factor to 0.12
ElecMinimize: Iter:  14  F: -7020.304237627293332  |grad|_K:  3.185e-06  alpha:  3.536e-01  linmin: -1.872e-05  t[s]:   1330.90
	Linear fluid (dielectric constant: 64) occupying 0.822083 of unit cell:	Completed after 18 iterations at t[s]:   1335.41
	Linear fluid (dielectric constant: 64) occupying 0.822085 of unit cell:	Completed after 5 iterations at t[s]:   1338.83
	FillingsUpdate:  mu: -0.092485057  nElectrons: 1110.000000
	SubspaceRotationAdjust: set factor to 0.119
ElecMinimize: Iter:  15  F: -7020.304866642501111  |grad|_K:  2.856e-06  alpha:  4.070e-01  linmin: -7.743e-06  t[s]:   1343.81
	Linear fluid (dielectric constant: 64) occupying 0.822084 of unit cell:	Completed after 18 iterations at t[s]:   1348.31
	Linear fluid (dielectric constant: 64) occupying 0.822084 of unit cell:	Completed after 0 iterations at t[s]:   1351.64
	FillingsUpdate:  mu: -0.092525974  nElectrons: 1110.000000
	SubspaceRotationAdjust: set factor to 0.123
ElecMinimize: Iter:  16  F: -7020.305361604286190  |grad|_K:  2.699e-06  alpha:  3.999e-01  linmin:  6.260e-06  t[s]:   1356.63
	Linear fluid (dielectric constant: 64) occupying 0.822073 of unit cell:	Completed after 18 iterations at t[s]:   1361.16
	Linear fluid (dielectric constant: 64) occupying 0.822073 of unit cell:	Completed after 0 iterations at t[s]:   1364.44
	FillingsUpdate:  mu: -0.092051477  nElectrons: 1110.000000
	SubspaceRotationAdjust: set factor to 0.123
ElecMinimize: Iter:  17  F: -7020.305794347657866  |grad|_K:  2.190e-06  alpha:  3.948e-01  linmin:  1.191e-05  t[s]:   1369.41
	Linear fluid (dielectric constant: 64) occupying 0.822062 of unit cell:	Completed after 15 iterations at t[s]:   1373.90
	Linear fluid (dielectric constant: 64) occupying 0.822062 of unit cell:	Completed after 0 iterations at t[s]:   1377.21
	FillingsUpdate:  mu: -0.091892357  nElectrons: 1110.000000
	SubspaceRotationAdjust: set factor to 0.117
ElecMinimize: Iter:  18  F: -7020.306078056312799  |grad|_K:  2.304e-06  alpha:  3.942e-01  linmin:  1.531e-06  t[s]:   1382.16
	Linear fluid (dielectric constant: 64) occupying 0.822047 of unit cell:	Completed after 15 iterations at t[s]:   1386.62
	Linear fluid (dielectric constant: 64) occupying 0.822050 of unit cell:	Completed after 5 iterations at t[s]:   1390.06
	FillingsUpdate:  mu: -0.092185035  nElectrons: 1110.000000
	SubspaceRotationAdjust: set factor to 0.11
ElecMinimize: Iter:  19  F: -7020.306337598891332  |grad|_K:  1.657e-06  alpha:  3.241e-01  linmin:  4.480e-06  t[s]:   1395.06
	Linear fluid (dielectric constant: 64) occupying 0.822046 of unit cell:	Completed after 11 iterations at t[s]:   1399.49
	Linear fluid (dielectric constant: 64) occupying 0.822045 of unit cell:	Completed after 5 iterations at t[s]:   1402.91
	FillingsUpdate:  mu: -0.092056090  nElectrons: 1110.000000
	SubspaceRotationAdjust: set factor to 0.108
ElecMinimize: Iter:  20  F: -7020.306504631722419  |grad|_K:  1.506e-06  alpha:  4.039e-01  linmin: -7.830e-06  t[s]:   1407.92
	Linear fluid (dielectric constant: 64) occupying 0.822043 of unit cell:	Completed after 16 iterations at t[s]:   1412.42
	Linear fluid (dielectric constant: 64) occupying 0.822043 of unit cell:	Completed after 4 iterations at t[s]:   1415.85
	FillingsUpdate:  mu: -0.091896920  nElectrons: 1110.000000
	SubspaceRotationAdjust: set factor to 0.102
ElecMinimize: Iter:  21  F: -7020.306620597415531  |grad|_K:  1.222e-06  alpha:  3.386e-01  linmin: -3.587e-06  t[s]:   1420.88
	Linear fluid (dielectric constant: 64) occupying 0.822041 of unit cell:	Completed after 7 iterations at t[s]:   1425.22
	Linear fluid (dielectric constant: 64) occupying 0.822041 of unit cell:	Completed after 0 iterations at t[s]:   1428.62
	FillingsUpdate:  mu: -0.092041701  nElectrons: 1110.000000
	SubspaceRotationAdjust: set factor to 0.101
ElecMinimize: Iter:  22  F: -7020.306699038540501  |grad|_K:  9.541e-07  alpha:  3.471e-01  linmin: -3.942e-05  t[s]:   1433.59
	Linear fluid (dielectric constant: 64) occupying 0.822041 of unit cell:	Completed after 11 iterations at t[s]:   1438.06
	Linear fluid (dielectric constant: 64) occupying 0.822041 of unit cell:	Completed after 0 iterations at t[s]:   1441.42
	FillingsUpdate:  mu: -0.091719195  nElectrons: 1110.000000
	SubspaceRotationAdjust: set factor to 0.103
ElecMinimize: Iter:  23  F: -7020.306748214332401  |grad|_K:  7.418e-07  alpha:  3.515e-01  linmin: -9.814e-05  t[s]:   1446.42
	Linear fluid (dielectric constant: 64) occupying 0.822040 of unit cell:	Completed after 5 iterations at t[s]:   1450.70
	Linear fluid (dielectric constant: 64) occupying 0.822040 of unit cell:	Completed after 0 iterations at t[s]:   1454.02
	FillingsUpdate:  mu: -0.091859057  nElectrons: 1110.000000
	SubspaceRotationAdjust: set factor to 0.109
ElecMinimize: Iter:  24  F: -7020.306780864076245  |grad|_K:  6.086e-07  alpha:  3.779e-01  linmin: -7.933e-05  t[s]:   1458.99
	Linear fluid (dielectric constant: 64) occupying 0.822042 of unit cell:	Completed after 10 iterations at t[s]:   1463.40
	Linear fluid (dielectric constant: 64) occupying 0.822042 of unit cell:	Completed after 0 iterations at t[s]:   1466.74
	FillingsUpdate:  mu: -0.091854361  nElectrons: 1110.000000
	SubspaceRotationAdjust: set factor to 0.111
ElecMinimize: Iter:  25  F: -7020.306803336330631  |grad|_K:  5.221e-07  alpha:  3.878e-01  linmin: -7.868e-05  t[s]:   1476.79
	Linear fluid (dielectric constant: 64) occupying 0.822045 of unit cell:	Completed after 5 iterations at t[s]:   1481.04
	Linear fluid (dielectric constant: 64) occupying 0.822044 of unit cell:	Completed after 2 iterations at t[s]:   1486.56
	FillingsUpdate:  mu: -0.091755138  nElectrons: 1110.000000
	SubspaceRotationAdjust: set factor to 0.112
ElecMinimize: Iter:  26  F: -7020.306816673829417  |grad|_K:  4.729e-07  alpha:  3.153e-01  linmin:  2.890e-05  t[s]:   1491.55
	Linear fluid (dielectric constant: 64) occupying 0.822047 of unit cell:	Completed after 5 iterations at t[s]:   1495.85
	Linear fluid (dielectric constant: 64) occupying 0.822048 of unit cell:	Completed after 0 iterations at t[s]:   1499.18
	FillingsUpdate:  mu: -0.091824197  nElectrons: 1110.000000
	SubspaceRotationAdjust: set factor to 0.131
ElecMinimize: Iter:  27  F: -7020.306830114409422  |grad|_K:  3.528e-07  alpha:  3.924e-01  linmin: -2.017e-04  t[s]:   1504.18
	Linear fluid (dielectric constant: 64) occupying 0.822052 of unit cell:	Completed after 5 iterations at t[s]:   1508.43
	Linear fluid (dielectric constant: 64) occupying 0.822051 of unit cell:	Completed after 0 iterations at t[s]:   1511.78
	FillingsUpdate:  mu: -0.091789163  nElectrons: 1110.000000
	SubspaceRotationAdjust: set factor to 0.137
ElecMinimize: Iter:  28  F: -7020.306838287405299  |grad|_K:  3.963e-07  alpha:  3.859e-01  linmin: -7.641e-05  t[s]:   1516.74
	Linear fluid (dielectric constant: 64) occupying 0.822058 of unit cell:	Completed after 11 iterations at t[s]:   1521.13
	Linear fluid (dielectric constant: 64) occupying 0.822055 of unit cell:	Completed after 3 iterations at t[s]:   1524.48
	FillingsUpdate:  mu: -0.091637127  nElectrons: 1110.000000
	SubspaceRotationAdjust: set factor to 0.136
ElecMinimize: Iter:  29  F: -7020.306843881659915  |grad|_K:  3.195e-07  alpha:  2.439e-01  linmin: -2.694e-05  t[s]:   1529.54
	Linear fluid (dielectric constant: 64) occupying 0.822058 of unit cell:	Completed after 4 iterations at t[s]:   1533.78
	Linear fluid (dielectric constant: 64) occupying 0.822058 of unit cell:	Completed after 0 iterations at t[s]:   1537.06
	FillingsUpdate:  mu: -0.091685970  nElectrons: 1110.000000
	SubspaceRotationAdjust: set factor to 0.156
ElecMinimize: Iter:  30  F: -7020.306849178527955  |grad|_K:  2.614e-07  alpha:  3.187e-01  linmin: -1.449e-04  t[s]:   1542.00
	Linear fluid (dielectric constant: 64) occupying 0.822061 of unit cell:	Completed after 3 iterations at t[s]:   1546.27
	Linear fluid (dielectric constant: 64) occupying 0.822061 of unit cell:	Completed after 0 iterations at t[s]:   1549.53
	FillingsUpdate:  mu: -0.091723293  nElectrons: 1110.000000
	SubspaceRotationAdjust: set factor to 0.166
ElecMinimize: Iter:  31  F: -7020.306853217882235  |grad|_K:  2.729e-07  alpha:  3.332e-01  linmin: -6.945e-05  t[s]:   1554.47
	Linear fluid (dielectric constant: 64) occupying 0.822064 of unit cell:	Completed after 3 iterations at t[s]:   1558.74
	Linear fluid (dielectric constant: 64) occupying 0.822063 of unit cell:	Completed after 3 iterations at t[s]:   1562.04
	FillingsUpdate:  mu: -0.091676225  nElectrons: 1110.000000
	SubspaceRotationAdjust: set factor to 0.166
ElecMinimize: Iter:  32  F: -7020.306855675917177  |grad|_K:  2.473e-07  alpha:  2.019e-01  linmin:  3.681e-05  t[s]:   1567.01
	Linear fluid (dielectric constant: 64) occupying 0.822065 of unit cell:	Completed after 3 iterations at t[s]:   1571.27
	Linear fluid (dielectric constant: 64) occupying 0.822065 of unit cell:	Completed after 0 iterations at t[s]:   1574.55
	FillingsUpdate:  mu: -0.091673457  nElectrons: 1110.000000
	SubspaceRotationAdjust: set factor to 0.191
ElecMinimize: Iter:  33  F: -7020.306857671203034  |grad|_K:  2.026e-07  alpha:  2.265e-01  linmin: -6.238e-05  t[s]:   1579.46
	Linear fluid (dielectric constant: 64) occupying 0.822066 of unit cell:	Completed after 3 iterations at t[s]:   1583.69
	Linear fluid (dielectric constant: 64) occupying 0.822066 of unit cell:	Completed after 0 iterations at t[s]:   1586.97
	FillingsUpdate:  mu: -0.091684594  nElectrons: 1110.000000
	SubspaceRotationAdjust: set factor to 0.193
ElecMinimize: Iter:  34  F: -7020.306859048055230  |grad|_K:  2.163e-07  alpha:  2.031e-01  linmin: -1.674e-05  t[s]:   1591.88
	Linear fluid (dielectric constant: 64) occupying 0.822068 of unit cell:	Completed after 3 iterations at t[s]:   1596.09
	Linear fluid (dielectric constant: 64) occupying 0.822068 of unit cell:	Completed after 0 iterations at t[s]:   1599.37
	FillingsUpdate:  mu: -0.091683908  nElectrons: 1110.000000
	SubspaceRotationAdjust: set factor to 0.185
ElecMinimize: Iter:  35  F: -7020.306860218351176  |grad|_K:  1.902e-07  alpha:  1.521e-01  linmin:  6.868e-05  t[s]:   1604.31
	Linear fluid (dielectric constant: 64) occupying 0.822069 of unit cell:	Completed after 3 iterations at t[s]:   1608.53
	Linear fluid (dielectric constant: 64) occupying 0.822069 of unit cell:	Completed after 0 iterations at t[s]:   1611.80
	FillingsUpdate:  mu: -0.091654573  nElectrons: 1110.000000
	SubspaceRotationAdjust: set factor to 0.186
ElecMinimize: Iter:  36  F: -7020.306860809380851  |grad|_K:  1.320e-07  alpha:  1.370e-01  linmin: -6.020e-05  t[s]:   1616.81
	Linear fluid (dielectric constant: 64) occupying 0.822069 of unit cell:	Completed after 0 iterations at t[s]:   1621.00
ElecMinimize: 	Predicted alpha/alphaT>3.000000, increasing alphaT to 4.110844e-01.
	Linear fluid (dielectric constant: 64) occupying 0.822071 of unit cell:	Completed after 3 iterations at t[s]:   1624.42
	Linear fluid (dielectric constant: 64) occupying 0.822070 of unit cell:	Completed after 0 iterations at t[s]:   1627.71
	FillingsUpdate:  mu: -0.091635993  nElectrons: 1110.000000
	SubspaceRotationAdjust: set factor to 0.19
ElecMinimize: Iter:  37  F: -7020.306861569491048  |grad|_K:  1.464e-07  alpha:  2.541e-01  linmin:  7.822e-05  t[s]:   1632.66
	Linear fluid (dielectric constant: 64) occupying 0.822071 of unit cell:	Completed after 2 iterations at t[s]:   1636.92
	Linear fluid (dielectric constant: 64) occupying 0.822071 of unit cell:	Completed after 0 iterations at t[s]:   1640.30
	FillingsUpdate:  mu: -0.091648587  nElectrons: 1110.000000
	SubspaceRotationAdjust: set factor to 0.155
ElecMinimize: Iter:  38  F: -7020.306861882600970  |grad|_K:  1.169e-07  alpha:  1.401e-01  linmin:  6.751e-05  t[s]:   1645.31
	Linear fluid (dielectric constant: 64) occupying 0.822071 of unit cell:	Completed after 0 iterations at t[s]:   1649.49
	Linear fluid (dielectric constant: 64) occupying 0.822072 of unit cell:	Completed after 2 iterations at t[s]:   1652.84
ElecMinimize: 	Step increased F by 3.472542e-08, reducing alpha to 3.752563e-02.
	Linear fluid (dielectric constant: 64) occupying 0.822071 of unit cell:	Completed after 1 iterations at t[s]:   1660.69
	FillingsUpdate:  mu: -0.091638595  nElectrons: 1110.000000
	SubspaceRotationAdjust: set factor to 0.131
ElecMinimize: Iter:  39  F: -7020.306861991107326  |grad|_K:  9.552e-08  alpha:  3.753e-02  linmin: -1.362e-04  t[s]:   1665.74
	Linear fluid (dielectric constant: 64) occupying 0.822071 of unit cell:	Completed after 0 iterations at t[s]:   1674.50
ElecMinimize: 	Predicted alpha/alphaT>3.000000, increasing alphaT to 1.125769e-01.
	Linear fluid (dielectric constant: 64) occupying 0.822071 of unit cell:	Completed after 0 iterations at t[s]:   1677.86
	Linear fluid (dielectric constant: 64) occupying 0.822071 of unit cell:	Completed after 1 iterations at t[s]:   1683.03
	FillingsUpdate:  mu: -0.091636775  nElectrons: 1110.000000
	SubspaceRotationAdjust: set factor to 0.146
ElecMinimize: Iter:  40  F: -7020.306862311590521  |grad|_K:  8.333e-08  alpha:  2.610e-01  linmin:  5.501e-05  t[s]:   1688.04
	Linear fluid (dielectric constant: 64) occupying 0.822071 of unit cell:	Completed after 0 iterations at t[s]:   1692.23
	Linear fluid (dielectric constant: 64) occupying 0.822072 of unit cell:	Completed after 2 iterations at t[s]:   1695.64
ElecMinimize: 	Step increased F by 1.531671e-07, reducing alpha to 3.453164e-02.
	Linear fluid (dielectric constant: 64) occupying 0.822071 of unit cell:	Completed after 0 iterations at t[s]:   1703.51
ElecMinimize: 	Step increased F by 3.070636e-08, reducing alpha to 3.453164e-03.
	Linear fluid (dielectric constant: 64) occupying 0.822071 of unit cell:	Completed after 0 iterations at t[s]:   1711.45
ElecMinimize: 	Step increased F by 4.139110e-08, reducing alpha to 3.453164e-04.
ElecMinimize: 	Step failed to reduce F after 3 attempts. Quitting step.
ElecMinimize: 	Undoing step.
	Linear fluid (dielectric constant: 64) occupying 0.822071 of unit cell:	Completed after 0 iterations at t[s]:   1719.32
ElecMinimize: 	Step failed: resetting search direction.
	FillingsUpdate:  mu: -0.091632291  nElectrons: 1110.000000
	SubspaceRotationAdjust: set factor to 0.143
ElecMinimize: Iter:  41  F: -7020.306862270163037  |grad|_K:  1.369e-07  alpha:  3.453e-04
	Linear fluid (dielectric constant: 64) occupying 0.822071 of unit cell:	Completed after 3 iterations at t[s]:   1728.51
	Linear fluid (dielectric constant: 64) occupying 0.822071 of unit cell:	Completed after 0 iterations at t[s]:   1731.77
	FillingsUpdate:  mu: -0.091632051  nElectrons: 1110.000000
	SubspaceRotationAdjust: set factor to 0.112
ElecMinimize: Iter:  42  F: -7020.306862737654228  |grad|_K:  1.764e-07  alpha:  9.795e-02  linmin:  2.169e-03  t[s]:   1736.75
	Linear fluid (dielectric constant: 64) occupying 0.822071 of unit cell:	Completed after 0 iterations at t[s]:   1740.95
	Linear fluid (dielectric constant: 64) occupying 0.822071 of unit cell:	Completed after 0 iterations at t[s]:   1744.20
	FillingsUpdate:  mu: -0.091632051  nElectrons: 1110.000000
	SubspaceRotationAdjust: set factor to 0.144
ElecMinimize: Iter:  43  F: -7020.306862766061386  |grad|_K:  1.664e-07  alpha:  3.699e-02  linmin: -6.227e-08  t[s]:   1749.14
	Linear fluid (dielectric constant: 64) occupying 0.822071 of unit cell:	Completed after 1 iterations at t[s]:   1753.36
	Linear fluid (dielectric constant: 64) occupying 0.822071 of unit cell:	Completed after 0 iterations at t[s]:   1756.65
ElecMinimize: 	Step increased F by 2.284569e-07, reducing alpha to 1.199536e-03.
	Linear fluid (dielectric constant: 64) occupying 0.822071 of unit cell:	Completed after 0 iterations at t[s]:   1764.39
ElecMinimize: 	Step increased F by 2.619681e-07, reducing alpha to 1.199536e-04.
	Linear fluid (dielectric constant: 64) occupying 0.822071 of unit cell:	Completed after 0 iterations at t[s]:   1772.19
ElecMinimize: 	Step increased F by 2.655324e-07, reducing alpha to 1.199536e-05.
ElecMinimize: 	Step failed to reduce F after 3 attempts. Quitting step.
ElecMinimize: 	Undoing step.
	Linear fluid (dielectric constant: 64) occupying 0.822071 of unit cell:	Completed after 0 iterations at t[s]:   1780.10
ElecMinimize: 	Step failed: resetting search direction.
	FillingsUpdate:  mu: -0.091630328  nElectrons: 1110.000000
	SubspaceRotationAdjust: set factor to 0.211
ElecMinimize: Iter:  44  F: -7020.306862500286115  |grad|_K:  6.784e-08  alpha:  1.200e-05
	Linear fluid (dielectric constant: 64) occupying 0.822071 of unit cell:	Completed after 0 iterations at t[s]:   1789.20
ElecMinimize: 	Predicted alpha/alphaT>3.000000, increasing alphaT to 1.109817e-01.
	Linear fluid (dielectric constant: 64) occupying 0.822071 of unit cell:	Completed after 0 iterations at t[s]:   1792.50
ElecMinimize: 	Predicted alpha/alphaT>3.000000, increasing alphaT to 3.329450e-01.
	Linear fluid (dielectric constant: 64) occupying 0.822071 of unit cell:	Completed after 3 iterations at t[s]:   1796.05
	Linear fluid (dielectric constant: 64) occupying 0.822071 of unit cell:	Completed after 0 iterations at t[s]:   1799.34
	FillingsUpdate:  mu: -0.091626823  nElectrons: 1110.000000
	SubspaceRotationAdjust: set factor to 0.184
ElecMinimize: Iter:  45  F: -7020.306862630417527  |grad|_K:  1.231e-07  alpha:  1.038e-01  linmin:  1.140e-03  t[s]:   1804.40
ElecMinimize: 	Bad step direction: g.d > 0.
ElecMinimize: 	Undoing step.
	Linear fluid (dielectric constant: 64) occupying 0.822071 of unit cell:	Completed after 0 iterations at t[s]:   1808.53
ElecMinimize: 	Step failed: resetting search direction.
	FillingsUpdate:  mu: -0.091626823  nElectrons: 1110.000000
	SubspaceRotationAdjust: set factor to 0.193
ElecMinimize: Iter:  46  F: -7020.306862630421165  |grad|_K:  1.190e-07  alpha:  0.000e+00
	Linear fluid (dielectric constant: 64) occupying 0.822071 of unit cell:	Completed after 2 iterations at t[s]:   1817.73
	Linear fluid (dielectric constant: 64) occupying 0.822071 of unit cell:	Completed after 0 iterations at t[s]:   1821.05
ElecMinimize: 	Step increased F by 7.553626e-08, reducing alpha to 3.452762e-03.
	Linear fluid (dielectric constant: 64) occupying 0.822071 of unit cell:	Completed after 0 iterations at t[s]:   1828.95
ElecMinimize: 	Step increased F by 6.657865e-08, reducing alpha to 3.452762e-04.
	Linear fluid (dielectric constant: 64) occupying 0.822071 of unit cell:	Completed after 0 iterations at t[s]:   1836.76
ElecMinimize: 	Step increased F by 6.153732e-08, reducing alpha to 3.452762e-05.
ElecMinimize: 	Step failed to reduce F after 3 attempts. Quitting step.
ElecMinimize: 	Undoing step.
	Linear fluid (dielectric constant: 64) occupying 0.822071 of unit cell:	Completed after 0 iterations at t[s]:   1844.64
ElecMinimize: 	Step failed along negative gradient direction.
ElecMinimize: Probably at roundoff error limit. (Stopping)
Setting wave functions to eigenvectors of Hamiltonian
Single-point solvation energy estimate, DeltaF = -0.390002852354883

# Ionic positions in cartesian coordinates:
ion Ni  32.181130469222218  -0.000028463333331   0.611327655000000 0
ion Ni   5.363545148055554  -0.000028463333331   5.974853827499991 0
ion Ni  32.181130469222218  -5.363543250499998   5.974853827499991 0
ion Ni   5.363545148055554  -5.363543250499998   0.611327655000000 0
ion Ni  32.181130469222218 -10.727058037666666   0.611327655000000 0
ion Ni  32.181130469222218 -21.454087611999999   0.611327655000000 0
ion Ni   5.363545148055554 -21.454087611999999   5.974853827499991 0
ion Ni   5.363545148055554 -10.727058037666666   5.974853827499991 0
ion Ni  32.181130469222218 -16.090572824833334   5.974853827499991 0
ion Ni  32.181130469222218 -26.817602399166642   5.974853827499991 0
ion Ni   5.363545148055554 -26.817602399166642   0.611327655000000 0
ion Ni   5.363545148055554 -16.090572824833334   0.611327655000000 0
ion Ni  10.727071320555540  -0.000028463333331   0.611327655000000 0
ion Ni  21.454100894888885  -0.000028463333331   0.611327655000000 0
ion Ni  21.454100894888885  -5.363543250499998   5.974853827499991 0
ion Ni  10.727071320555540  -5.363543250499998   5.974853827499991 0
ion Ni  16.090574722388887  -5.363543250499998   0.611327655000000 0
ion Ni  26.817604296722198  -5.363543250499998   0.611327655000000 0
ion Ni  26.817604296722198  -0.000028463333331   5.974853827499991 0
ion Ni  16.090574722388887  -0.000028463333331   5.974853827499991 0
ion Ni  10.727071320555540 -10.727058037666666   0.611327655000000 0
ion Ni  21.454100894888885 -21.454087611999999   0.611327655000000 0
ion Ni  26.817604296722198 -21.454087611999999   5.974853827499991 0
ion Ni  16.090574722388887 -10.727058037666666   5.974853827499991 0
ion Ni  21.454100894888885 -16.090572824833334   5.974853827499991 0
ion Ni  10.727071320555540 -26.817602399166642   5.974853827499991 0
ion Ni  16.090574722388887 -26.817602399166642   0.611327655000000 0
ion Ni  26.817604296722198 -16.090572824833334   0.611327655000000 0
ion Ni  10.727071320555540 -21.454087611999999   0.611327655000000 0
ion Ni  21.454100894888885 -10.727058037666666   0.611327655000000 0
ion Ni  26.817604296722198 -10.727058037666666   5.974853827499991 0
ion Ni  16.090574722388887 -21.454087611999999   5.974853827499991 0
ion Ni  21.454100894888885 -26.817602399166642   5.974853827499991 0
ion Ni  10.727071320555540 -16.090572824833334   5.974853827499991 0
ion Ni  16.090574722388887 -16.090572824833334   0.611327655000000 0
ion Ni  26.817604296722198 -26.817602399166642   0.611327655000000 0
ion S   4.232269668888879  -4.232271970733331   7.106125994099994 0
ion S  27.948891161222196 -27.948885064266644   4.843581660899996 0
ion S   1.131317225388885 -27.948885064266644   1.742599821599998 0
ion S   9.595784456055540  -4.232271970733331  10.207107833399991 0
ion S  27.948891161222196  -9.595786757899997  10.207107833399991 0
ion S   4.232269668888879  -1.131311128433331   1.742599821599998 0
ion S   9.595784456055540  -1.131311128433331   4.843581660899996 0
ion S   1.131317225388885  -9.595786757899997   7.106125994099994 0
ion S   4.232269668888879 -14.959301545066653   7.106125994099994 0
ion S  27.948891161222196 -17.221855489933308   4.843581660899996 0
ion S   1.131317225388885 -17.221855489933308   1.742599821599998 0
ion S   9.595784456055540 -14.959301545066653  10.207107833399991 0
ion S  27.948891161222196 -20.322816332233330  10.207107833399991 0
ion S   4.232269668888879 -22.585370277100001   1.742599821599998 0
ion S   9.595784456055540 -22.585370277100001   4.843581660899996 0
ion S   1.131317225388885 -20.322816332233330   7.106125994099994 0
ion S  14.959299243222208  -4.232271970733330   7.106125994099994 0
ion S  17.221861586888888 -27.948885064266644   4.843581660899996 0
ion S  17.221861586888888  -9.595786757899997  10.207107833399991 0
ion S  14.959299243222208  -1.131311128433331   1.742599821599998 0
ion S  20.322814030388887  -1.131311128433331   4.843581660899996 0
ion S  22.585376374055553  -9.595786757899997   7.106125994099994 0
ion S  22.585376374055553 -27.948885064266644   1.742599821599998 0
ion S  20.322814030388887  -4.232271970733330  10.207107833399991 0
ion S   4.232269668888879 -25.686331119399977   7.106125994099994 0
ion S  27.948891161222196  -6.494825915599992   4.843581660899996 0
ion S   1.131317225388885  -6.494825915599992   1.742599821599998 0
ion S   9.595784456055540 -25.686331119399977  10.207107833399991 0
ion S  27.948891161222196 -31.049845906566667  10.207107833399991 0
ion S   4.232269668888879 -11.858340702766654   1.742599821599998 0
ion S   9.595784456055540 -11.858340702766654   4.843581660899996 0
ion S   1.131317225388885 -31.049845906566667   7.106125994099994 0
ion S  25.686328817555530  -4.232271970733330   7.106125994099994 0
ion S   6.494832012555547 -27.948885064266644   4.843581660899996 0
ion S   6.494832012555547  -9.595786757899997  10.207107833399991 0
ion S  25.686328817555530  -1.131311128433331   1.742599821599998 0
ion S  31.049843604722220  -1.131311128433331   4.843581660899996 0
ion S  11.858346799722209  -9.595786757899997   7.106125994099994 0
ion S  11.858346799722209 -27.948885064266644   1.742599821599998 0
ion S  31.049843604722220  -4.232271970733330  10.207107833399991 0
ion S  14.959299243222208 -14.959301545066653   7.106125994099994 0
ion S  17.221861586888888 -17.221855489933308   4.843581660899996 0
ion S  22.585376374055553 -17.221855489933308   1.742599821599998 0
ion S  20.322814030388887 -14.959301545066653  10.207107833399991 0
ion S  17.221861586888888 -20.322816332233330  10.207107833399991 0
ion S  14.959299243222208 -22.585370277100001   1.742599821599998 0
ion S  20.322814030388887 -22.585370277100001   4.843581660899996 0
ion S  22.585376374055553 -20.322816332233330   7.106125994099994 0
ion S  14.959299243222208 -25.686331119399977   7.106125994099994 0
ion S  17.221861586888888  -6.494825915599992   4.843581660899996 0
ion S  22.585376374055553  -6.494825915599992   1.742599821599998 0
ion S  20.322814030388887 -25.686331119399977  10.207107833399991 0
ion S  17.221861586888888 -31.049845906566667  10.207107833399991 0
ion S  14.959299243222208 -11.858340702766654   1.742599821599998 0
ion S  20.322814030388887 -11.858340702766654   4.843581660899996 0
ion S  22.585376374055553 -31.049845906566667   7.106125994099994 0
ion S  25.686328817555530 -14.959301545066653   7.106125994099994 0
ion S   6.494832012555547 -17.221855489933308   4.843581660899996 0
ion S  11.858346799722209 -17.221855489933308   1.742599821599998 0
ion S  31.049843604722220 -14.959301545066653  10.207107833399991 0
ion S   6.494832012555547 -20.322816332233330  10.207107833399991 0
ion S  25.686328817555530 -22.585370277100001   1.742599821599998 0
ion S  31.049843604722220 -22.585370277100001   4.843581660899996 0
ion S  11.858346799722209 -20.322816332233330   7.106125994099994 0
ion S  25.686328817555530 -25.686331119399977   7.106125994099994 0
ion S   6.494832012555547  -6.494825915599992   4.843581660899996 0
ion S  11.858346799722209  -6.494825915599992   1.742599821599998 0
ion S  31.049843604722220 -25.686331119399977  10.207107833399991 0
ion S   6.494832012555547 -31.049845906566667  10.207107833399991 0
ion S  25.686328817555530 -11.858340702766654   1.742599821599998 0
ion S  31.049843604722220 -11.858340702766654   4.843581660899996 0
ion S  11.858346799722209 -31.049845906566667   7.106125994099994 0
ion S  22.073101273691503 -16.801313493397917  12.903415698242060 1
ion S  14.158399616325404 -19.433561382763294  11.982669504594526 1
ion Na   4.420528436048222 -26.305191926387131  12.270216360786934 1
ion Na  26.595090820234368 -14.175433835040568  12.615749748593815 1

# Forces in Cartesian coordinates:
force Ni   0.022466676555492   0.010019079242716   0.035066990055438 0
force Ni  -0.002628608465221  -0.000480685209161   0.007824269648836 0
force Ni   0.002696441860829  -0.000377789601541   0.008081899687192 0
force Ni  -0.022437481590658   0.010005381788220   0.035034668674195 0
force Ni   0.022510648249972   0.010018976717082   0.035047569065415 0
force Ni   0.022474291904628   0.010021900211297   0.034995175407965 0
force Ni  -0.002345670829396   0.000161505389243   0.008200948624580 0
force Ni  -0.002755678743555  -0.000281672396259   0.007959804132865 0
force Ni   0.002589117507855  -0.000118765711230   0.007935210910755 0
force Ni   0.002305440285472  -0.000394019721603   0.007983465564982 0
force Ni  -0.022576808163871   0.010220408322332   0.035416396967846 0
force Ni  -0.022398290109451   0.009971548882908   0.034880621564801 0
force Ni   0.022541560018268   0.010047352409880   0.035118218173940 0
force Ni   0.022428582759865   0.010001431250476   0.035005118541955 0
force Ni   0.002639519777340  -0.000014465629851   0.008186626282620 0
force Ni   0.002738381458969  -0.000366661361466   0.008107030022445 0
force Ni  -0.022438819424307   0.010023622909328   0.035083905571001 0
force Ni  -0.022455385658665   0.010007362599935   0.035005774179475 0
force Ni  -0.002720220156861  -0.000319621009952   0.007989936890322 0
force Ni  -0.002826087171195  -0.000234122874229   0.008152583018770 0
force Ni   0.022442055491424   0.010004346158444   0.034883467212296 0
force Ni   0.022563291871796   0.010286070709826   0.034305886039307 0
force Ni  -0.002035420355825  -0.000601128667709   0.008858145498911 0
force Ni  -0.002143982914666  -0.000482172479992   0.008717893497615 0
force Ni   0.006525929574072  -0.004189064660527   0.001308989231627 0
force Ni   0.002817948641847   0.000023058751326   0.007884608090038 0
force Ni  -0.022382030725880   0.009981449833081   0.034960406847524 0
force Ni  -0.022648269019383   0.010122175904561   0.034970862988798 0
force Ni   0.022706105177685   0.010221059141952   0.034957530281309 0
force Ni   0.023013167126907   0.009941987211548   0.034404316525372 0
[...]
	Linear fluid (dielectric constant: 64) occupying 0.821018 of unit cell:	Completed after 0 iterations at t[s]:  54983.45
	FillingsUpdate:  mu: -0.090386051  nElectrons: 1110.000000
	SubspaceRotationAdjust: set factor to 0.158
ElecMinimize: Iter:  14  F: -7020.359617192078986  |grad|_K:  2.983e-08  alpha:  4.025e-01  linmin: -1.306e-05  t[s]:  54988.38
	Linear fluid (dielectric constant: 64) occupying 0.821018 of unit cell:	Completed after 3 iterations at t[s]:  54992.68
	Linear fluid (dielectric constant: 64) occupying 0.821018 of unit cell:	Completed after 0 iterations at t[s]:  54996.00
	FillingsUpdate:  mu: -0.090390521  nElectrons: 1110.000000
	SubspaceRotationAdjust: set factor to 0.135
ElecMinimize: Iter:  15  F: -7020.359617213067395  |grad|_K:  1.585e-07  alpha:  2.992e-02  linmin:  1.216e-02  t[s]:  55000.98
ElecMinimize: 	Bad step direction: g.d > 0.
ElecMinimize: 	Undoing step.
	Linear fluid (dielectric constant: 64) occupying 0.821018 of unit cell:	Completed after 0 iterations at t[s]:  55005.08
ElecMinimize: 	Step failed: resetting search direction.
	FillingsUpdate:  mu: -0.090390521  nElectrons: 1110.000000
	SubspaceRotationAdjust: set factor to 0.124
ElecMinimize: Iter:  16  F: -7020.359617213054662  |grad|_K:  1.517e-07  alpha:  0.000e+00
	Linear fluid (dielectric constant: 64) occupying 0.821018 of unit cell:	Completed after 1 iterations at t[s]:  55014.16
	Linear fluid (dielectric constant: 64) occupying 0.821018 of unit cell:	Completed after 0 iterations at t[s]:  55017.45
ElecMinimize: 	Step increased F by 1.103972e-07, reducing alpha to 1.239889e-03.
	Linear fluid (dielectric constant: 64) occupying 0.821018 of unit cell:	Completed after 0 iterations at t[s]:  55025.27
ElecMinimize: 	Step increased F by 1.540620e-07, reducing alpha to 1.239889e-04.
	Linear fluid (dielectric constant: 64) occupying 0.821018 of unit cell:	Completed after 0 iterations at t[s]:  55033.08
ElecMinimize: 	Step increased F by 1.586723e-07, reducing alpha to 1.239889e-05.
ElecMinimize: 	Step failed to reduce F after 3 attempts. Quitting step.
ElecMinimize: 	Undoing step.
	Linear fluid (dielectric constant: 64) occupying 0.821018 of unit cell:	Completed after 0 iterations at t[s]:  55040.90
ElecMinimize: 	Step failed along negative gradient direction.
ElecMinimize: Probably at roundoff error limit. (Stopping)
Setting wave functions to eigenvectors of Hamiltonian

# Ionic positions in cartesian coordinates:
ion Ni  32.181130469222218  -0.000028463333331   0.611327655000000 0
ion Ni   5.363545148055554  -0.000028463333331   5.974853827499991 0
ion Ni  32.181130469222218  -5.363543250499998   5.974853827499991 0
ion Ni   5.363545148055554  -5.363543250499998   0.611327655000000 0
ion Ni  32.181130469222218 -10.727058037666666   0.611327655000000 0
ion Ni  32.181130469222218 -21.454087611999999   0.611327655000000 0
ion Ni   5.363545148055554 -21.454087611999999   5.974853827499991 0
ion Ni   5.363545148055554 -10.727058037666666   5.974853827499991 0
ion Ni  32.181130469222218 -16.090572824833334   5.974853827499991 0
ion Ni  32.181130469222218 -26.817602399166642   5.974853827499991 0
ion Ni   5.363545148055554 -26.817602399166642   0.611327655000000 0
ion Ni   5.363545148055554 -16.090572824833334   0.611327655000000 0
ion Ni  10.727071320555540  -0.000028463333331   0.611327655000000 0
ion Ni  21.454100894888885  -0.000028463333331   0.611327655000000 0
ion Ni  21.454100894888885  -5.363543250499998   5.974853827499991 0
ion Ni  10.727071320555540  -5.363543250499998   5.974853827499991 0
ion Ni  16.090574722388887  -5.363543250499998   0.611327655000000 0
ion Ni  26.817604296722198  -5.363543250499998   0.611327655000000 0
ion Ni  26.817604296722198  -0.000028463333331   5.974853827499991 0
ion Ni  16.090574722388887  -0.000028463333331   5.974853827499991 0
ion Ni  10.727071320555540 -10.727058037666666   0.611327655000000 0
ion Ni  21.454100894888885 -21.454087611999999   0.611327655000000 0
ion Ni  26.817604296722198 -21.454087611999999   5.974853827499991 0
ion Ni  16.090574722388887 -10.727058037666666   5.974853827499991 0
ion Ni  21.454100894888885 -16.090572824833334   5.974853827499991 0
ion Ni  10.727071320555540 -26.817602399166642   5.974853827499991 0
ion Ni  16.090574722388887 -26.817602399166642   0.611327655000000 0
ion Ni  26.817604296722198 -16.090572824833334   0.611327655000000 0
ion Ni  10.727071320555540 -21.454087611999999   0.611327655000000 0
ion Ni  21.454100894888885 -10.727058037666666   0.611327655000000 0
ion Ni  26.817604296722198 -10.727058037666666   5.974853827499991 0
ion Ni  16.090574722388887 -21.454087611999999   5.974853827499991 0
ion Ni  21.454100894888885 -26.817602399166642   5.974853827499991 0
ion Ni  10.727071320555540 -16.090572824833334   5.974853827499991 0
ion Ni  16.090574722388887 -16.090572824833334   0.611327655000000 0
ion Ni  26.817604296722198 -26.817602399166642   0.611327655000000 0
ion S   4.232269668888879  -4.232271970733331   7.106125994099994 0
ion S  27.948891161222196 -27.948885064266644   4.843581660899996 0
ion S   1.131317225388885 -27.948885064266644   1.742599821599998 0
ion S   9.595784456055540  -4.232271970733331  10.207107833399991 0
ion S  27.948891161222196  -9.595786757899997  10.207107833399991 0
ion S   4.232269668888879  -1.131311128433331   1.742599821599998 0
ion S   9.595784456055540  -1.131311128433331   4.843581660899996 0
ion S   1.131317225388885  -9.595786757899997   7.106125994099994 0
ion S   4.232269668888879 -14.959301545066653   7.106125994099994 0
ion S  27.948891161222196 -17.221855489933308   4.843581660899996 0
ion S   1.131317225388885 -17.221855489933308   1.742599821599998 0
ion S   9.595784456055540 -14.959301545066653  10.207107833399991 0
ion S  27.948891161222196 -20.322816332233330  10.207107833399991 0
ion S   4.232269668888879 -22.585370277100001   1.742599821599998 0
ion S   9.595784456055540 -22.585370277100001   4.843581660899996 0
ion S   1.131317225388885 -20.322816332233330   7.106125994099994 0
ion S  14.959299243222208  -4.232271970733330   7.106125994099994 0
ion S  17.221861586888888 -27.948885064266644   4.843581660899996 0
ion S  17.221861586888888  -9.595786757899997  10.207107833399991 0
ion S  14.959299243222208  -1.131311128433331   1.742599821599998 0
ion S  20.322814030388887  -1.131311128433331   4.843581660899996 0
ion S  22.585376374055553  -9.595786757899997   7.106125994099994 0
ion S  22.585376374055553 -27.948885064266644   1.742599821599998 0
ion S  20.322814030388887  -4.232271970733330  10.207107833399991 0
ion S   4.232269668888879 -25.686331119399977   7.106125994099994 0
ion S  27.948891161222196  -6.494825915599992   4.843581660899996 0
ion S   1.131317225388885  -6.494825915599992   1.742599821599998 0
ion S   9.595784456055540 -25.686331119399977  10.207107833399991 0
ion S  27.948891161222196 -31.049845906566667  10.207107833399991 0
ion S   4.232269668888879 -11.858340702766654   1.742599821599998 0
ion S   9.595784456055540 -11.858340702766654   4.843581660899996 0
ion S   1.131317225388885 -31.049845906566667   7.106125994099994 0
ion S  25.686328817555530  -4.232271970733330   7.106125994099994 0
ion S   6.494832012555547 -27.948885064266644   4.843581660899996 0
ion S   6.494832012555547  -9.595786757899997  10.207107833399991 0
ion S  25.686328817555530  -1.131311128433331   1.742599821599998 0
ion S  31.049843604722220  -1.131311128433331   4.843581660899996 0
ion S  11.858346799722209  -9.595786757899997   7.106125994099994 0
ion S  11.858346799722209 -27.948885064266644   1.742599821599998 0
ion S  31.049843604722220  -4.232271970733330  10.207107833399991 0
ion S  14.959299243222208 -14.959301545066653   7.106125994099994 0
ion S  17.221861586888888 -17.221855489933308   4.843581660899996 0
ion S  22.585376374055553 -17.221855489933308   1.742599821599998 0
ion S  20.322814030388887 -14.959301545066653  10.207107833399991 0
ion S  17.221861586888888 -20.322816332233330  10.207107833399991 0
ion S  14.959299243222208 -22.585370277100001   1.742599821599998 0
ion S  20.322814030388887 -22.585370277100001   4.843581660899996 0
ion S  22.585376374055553 -20.322816332233330   7.106125994099994 0
ion S  14.959299243222208 -25.686331119399977   7.106125994099994 0
ion S  17.221861586888888  -6.494825915599992   4.843581660899996 0
ion S  22.585376374055553  -6.494825915599992   1.742599821599998 0
ion S  20.322814030388887 -25.686331119399977  10.207107833399991 0
ion S  17.221861586888888 -31.049845906566667  10.207107833399991 0
ion S  14.959299243222208 -11.858340702766654   1.742599821599998 0
ion S  20.322814030388887 -11.858340702766654   4.843581660899996 0
ion S  22.585376374055553 -31.049845906566667   7.106125994099994 0
ion S  25.686328817555530 -14.959301545066653   7.106125994099994 0
ion S   6.494832012555547 -17.221855489933308   4.843581660899996 0
ion S  11.858346799722209 -17.221855489933308   1.742599821599998 0
ion S  31.049843604722220 -14.959301545066653  10.207107833399991 0
ion S   6.494832012555547 -20.322816332233330  10.207107833399991 0
ion S  25.686328817555530 -22.585370277100001   1.742599821599998 0
ion S  31.049843604722220 -22.585370277100001   4.843581660899996 0
ion S  11.858346799722209 -20.322816332233330   7.106125994099994 0
ion S  25.686328817555530 -25.686331119399977   7.106125994099994 0
ion S   6.494832012555547  -6.494825915599992   4.843581660899996 0
ion S  11.858346799722209  -6.494825915599992   1.742599821599998 0
ion S  31.049843604722220 -25.686331119399977  10.207107833399991 0
ion S   6.494832012555547 -31.049845906566667  10.207107833399991 0
ion S  25.686328817555530 -11.858340702766654   1.742599821599998 0
ion S  31.049843604722220 -11.858340702766654   4.843581660899996 0
ion S  11.858346799722209 -31.049845906566667   7.106125994099994 0
ion S  23.348388392237492 -14.383217880119393  12.266284815572687 1
ion S  14.228851102025047 -19.450662977122793  12.185791041723153 1
ion Na   4.080468184114121 -26.156518503362147  15.608649796055008 1
ion Na  27.761942610468591 -13.068460279041815  17.319865952689479 1

# Forces in Cartesian coordinates:
force Ni   0.022508323707925   0.010018128930838   0.035014082895897 0
force Ni  -0.002722018529900  -0.000364903993345   0.007957097910128 0
force Ni   0.002734636905827  -0.000398952583301   0.007897140992461 0
force Ni  -0.022504878220618   0.010017947567004   0.035043089632668 0
force Ni   0.022547963119870   0.010013209881112   0.035092030412514 0
force Ni   0.022578816180852   0.010046095076738   0.035061469278267 0
force Ni  -0.002547754005327  -0.000149942064464   0.008074066031137 0
force Ni  -0.002749242177066  -0.000304846032254   0.007926123755380 0
force Ni   0.002459115945624  -0.000180216079668   0.008155682224967 0
force Ni   0.002698234158680  -0.000295512186868   0.007922876154934 0
force Ni  -0.022460090298933   0.010028666320951   0.034961241174163 0
force Ni  -0.022585140030918   0.010004098126120   0.035037739893690 0
force Ni   0.022566949460149   0.010043045782376   0.035090534841365 0
force Ni   0.022582419788925   0.010025232606575   0.035286389133617 0
force Ni   0.002528564259282  -0.000238281273250   0.008266459939496 0
force Ni   0.002802314928812  -0.000378192261696   0.007960564084621 0
force Ni  -0.022584856107609   0.010088116318954   0.035309238435955 0
force Ni  -0.022618056789095   0.010051210387855   0.035184237029747 0
force Ni  -0.002806702263531  -0.000402121156849   0.007906851461535 0
force Ni  -0.002751169522713  -0.000294461578568   0.008257267454355 0
force Ni   0.022608884457670   0.010016126497725   0.035102212955874 0
force Ni   0.022589769412263   0.010384949614533   0.034685159099693 0
force Ni  -0.001788021594925  -0.000288288370160   0.008693156865178 0
force Ni  -0.002456661442583   0.000005723677223   0.008279596923028 0
force Ni   0.004688084953875  -0.002010737983557   0.000624628866565 0
force Ni   0.002769520735593  -0.000077690529001   0.007907383820035 0
force Ni  -0.022516679684081   0.010037493596437   0.035089878857251 0
force Ni  -0.022826410650411   0.010274415371755   0.034902613881211 0
force Ni   0.022707733954421   0.010183655806059   0.034746163279235 0
force Ni   0.022857580141173   0.010024598444807   0.034761243168092 0
force Ni  -0.002564883527075  -0.000897195053147   0.008353374251347 0
force Ni  -0.005081361944110  -0.003414517763081   0.000317657617253 0
force Ni   0.003049857630545  -0.001121838926560   0.007888120486825 0
force Ni   0.001618326431530  -0.000955722251673   0.009079986721844 0
force Ni  -0.022877044608141   0.010289778836236   0.033899064677013 0
force Ni  -0.022481714274839   0.009971540353194   0.035119507999861 0
force S  -0.005476795004876   0.004295646732153   0.002191207893532 0
force S   0.001589175308779   0.001431241426860  -0.014042583814929 0
force S  -0.001048351860804  -0.007522283924817  -0.014274578197663 0
force S  -0.000672885038065  -0.007957249678010  -0.017012784105366 0
force S  -0.000047500343818  -0.007997421337158  -0.016651387810198 0
force S   0.001097137386417  -0.007579659133023  -0.014272714143076 0
force S  -0.001579407457204   0.001364517558188  -0.013891146843712 0
force S   0.005301777655542   0.004263153406908   0.002274989861350 0
force S  -0.005257549137129   0.004225521670218   0.002196362191846 0
force S   0.001707280794568   0.001559585020292  -0.014554996832332 0
force S  -0.000963899626362  -0.007543525189299  -0.014207517435747 0
force S   0.000363288370942  -0.008090496361062  -0.016180690953201 0
force S   0.001203492730061  -0.008035329292193  -0.016964511441244 0
force S   0.001061003532761  -0.007553000345067  -0.014329431458465 0
force S  -0.001646624428374   0.001324121528857  -0.015088803645674 0
force S   0.005361283069078   0.004190575721159   0.002031097894510 0
force S  -0.005219711376204   0.004599467908112   0.001781890217416 0
force S   0.002253107756742   0.001601036022129  -0.013725267003344 0
force S  -0.001150998460884  -0.005082440030732  -0.017895589462563 0
force S   0.001164227129702  -0.007478785912792  -0.014168648727066 0
force S  -0.001624736112957   0.001201136961213  -0.013582890674416 0
force S   0.004926809752530   0.005423519110319   0.000838723846889 0
force S  -0.001233866965513  -0.007316362267091  -0.013986569093170 0
force S  -0.001026394023170  -0.007973859189101  -0.017443592499781 0
force S  -0.005585478081257   0.004298318473318   0.001998389858042 0
force S   0.001641076272767   0.001443154638272  -0.013964213802058 0
force S  -0.001064228558190  -0.007630676427180  -0.014209171633707 0
force S  -0.000798958756846  -0.008029171331210  -0.017022799142361 0
force S   0.000610574672199  -0.007945609765405  -0.016840952721906 0
force S   0.001046720027496  -0.007663764081951  -0.014110235840866 0
force S  -0.001795107488178   0.001664360498165  -0.014119176023596 0
force S   0.005554216570572   0.004338196040595   0.002130128014086 0
force S  -0.005710714394453   0.004232749817974   0.002031091227086 0
force S   0.001790075953090   0.001357492098415  -0.013925188070323 0
force S   0.000816048184042  -0.008362988675847  -0.016863978483965 0
force S   0.001179842493835  -0.007492288663991  -0.014155538132869 0
force S  -0.001769610468892   0.001455849045662  -0.014023539610997 0
force S   0.005872922017672   0.004293614128550   0.002054879972201 0
force S  -0.001058814816516  -0.007453514606644  -0.014099278754411 0
force S  -0.000788555217672  -0.008382356203395  -0.016763148494834 0
force S  -0.004185119340741   0.005413751650339  -0.000372312903296 0
force S   0.002447779437864   0.002488144523857  -0.010334745996942 0
force S  -0.000056166820824  -0.008375979226502  -0.015791771934312 0
force S   0.001385321020995  -0.002665301404908  -0.003269836762187 0
force S   0.001862176239594  -0.007107086855545  -0.005959319349013 0
force S  -0.000265508937384  -0.008023637346555  -0.015704392581508 0
force S  -0.003737094862291   0.002072769845689  -0.011766226587399 0
force S   0.004961368809274   0.004256631887239   0.001578282109201 0
force S  -0.005536223794461   0.004836690223569   0.001883488900393 0
force S   0.001579300004868   0.001334723268183  -0.013329747509391 0
force S  -0.001193882548518  -0.007437828909004  -0.014369002285745 0
force S   0.001117085420984  -0.009855566395931  -0.017821504436699 0
force S   0.000852735055005  -0.007914172430070  -0.017395285070064 0
force S   0.001238733108287  -0.007638032220660  -0.014389899221750 0
force S  -0.001283481692406   0.001777682612584  -0.012670044912654 0
force S   0.005108485876959   0.004324355160957   0.001968958227316 0
force S  -0.002041970094300   0.002689317118672   0.000558071727741 0
force S   0.001501578518647   0.001511551370432  -0.014256825861981 0
force S  -0.000559092427517  -0.007641613069752  -0.014431869591455 0
force S  -0.000602495879709  -0.008075463237291  -0.017848342557010 0
force S   0.000608793801887  -0.008099755870626  -0.017558453375658 0
force S   0.000892980517343  -0.007566255336493  -0.014225958620475 0
force S  -0.001663992918001   0.001493817093220  -0.013935056011910 0
force S   0.002321937474032   0.002595575347214   0.001120278197774 0
force S  -0.005641673145565   0.004243443941338   0.001940947688399 0
force S   0.001766793057283   0.001476899878545  -0.013946990580667 0
force S  -0.001252553828873  -0.007543353459535  -0.014090879737759 0
force S  -0.000885860463367  -0.007635443224869  -0.016908624428226 0
force S   0.000750228380374  -0.007911384627209  -0.016903562699124 0
force S   0.001086288118371  -0.007387609066000  -0.014186375532263 0
force S  -0.001706755839563   0.001434735907576  -0.013992596672425 0
force S   0.005611082449279   0.004137036740606   0.001955784495924 0
force S  -0.003824644286840  -0.000413846169572  -0.002400413406062 1
force S   0.000143104480452   0.000005169066994   0.000398217248525 1
force Na   0.000009210364744  -0.000115160791559  -0.000025213375544 1
force Na   0.000203732077136   0.000068411893686  -0.000063444127442 1

# Energy components:
   A_diel =       -1.3491193065896769
   Eewald =    37376.9979980964708375
       EH =    43598.8564394476998132
     Eloc =   -89215.7804285132879158
      Enl =      909.7753314987701287
      Exc =     -962.2408952305074763
 Exc_core =      145.2505316070936203
       KE =     1129.1440316781472575
-------------------------------------
     Etot =    -7019.3461107221992279
       TS =        1.0135063323416245
-------------------------------------
        F =    -7020.3596170545406494

IonicMinimize: Iter:  49  F: -7020.359617054540649  |grad|_K:  1.317e-03  alpha: -6.003e-02  linmin: -1.563e-03  t[s]:  55049.81
IonicMinimize: Converged (|Delta F|<1.000000e-06 for 2 iters).

#--- Lowdin population analysis ---
# oxidation-state Ni +0.185 -0.446 -0.446 +0.184 +0.185 +0.185 -0.445 -0.445 -0.443 -0.446 +0.186 +0.189 +0.181 +0.180 -0.439 -0.443 +0.177 +0.179 -0.445 -0.442 +0.181 +0.178 -0.438 -0.443 -0.471 -0.444 +0.184 +0.165 +0.174 +0.174 -0.441 -0.468 -0.441 -0.439 +0.178 +0.181
# oxidation-state S +0.282 +0.443 +0.041 -0.256 -0.221 +0.041 +0.443 +0.281 +0.281 +0.440 +0.041 -0.223 -0.251 +0.041 +0.440 +0.282 +0.285 +0.444 -0.281 +0.040 +0.444 +0.274 +0.040 -0.251 +0.281 +0.442 +0.041 -0.247 -0.260 +0.041 +0.441 +0.281 +0.283 +0.443 -0.262 +0.041 +0.443 +0.284 +0.041 -0.263 +0.242 +0.427 +0.035 +0.218 +0.212 +0.037 +0.438 +0.247 +0.279 +0.444 +0.039 -0.294 -0.252 +0.039 +0.433 +0.284 +0.308 +0.443 +0.038 -0.251 -0.254 +0.039 +0.443 +0.304 +0.283 +0.443 +0.041 -0.252 -0.254 +0.040 +0.443 +0.283 -0.122 -0.124
# oxidation-state Na +0.946 +0.965


Dumping 'Na2S2@NiS2_S-PC.fillings' ... done
Dumping 'Na2S2@NiS2_S-PC.wfns' ... done
Dumping 'Na2S2@NiS2_S-PC.fluidState' ... done
Dumping 'Na2S2@NiS2_S-PC.ionpos' ... done
Dumping 'Na2S2@NiS2_S-PC.eigenvals' ... done
End date and time: Sat Oct  5 20:48:14 2024  (Duration: 0-15:17:51.98)
Done!
