
*************** JDFTx 1.7.0  ***************

Start date and time: Wed Oct  9 17:11:20 2024
Executable jdftx_gpu with command-line: -i /home/akim2/JDFTx/Na2S8@NiS2_S-glyme/Na2S8@NiS2_S-glyme.in -o /home/akim2/JDFTx/Na2S8@NiS2_S-glyme/Na2S8@NiS2_S-glyme.out
Running on hosts (process indices):  exp-1-59 (0)
Divided in process groups (process indices):  0 (0)
gpuInit: Found compatible cuda device 0 'Tesla V100-SXM2-32GB'
gpuInit: Selected device 0
Resource initialization completed at t[s]:      0.63
Run totals: 1 processes, 1 threads, 1 GPUs


Input parsed successfully to the following command list (including defaults):

basis kpoint-dependent
coords-type Cartesian
core-overlap-check vector
coulomb-interaction Slab 001
coulomb-truncation-embed 0 0 10
davidson-band-ratio 1.1
dump End State
dump Ionic State
dump-interval Ionic 5
dump-name Na2S8@NiS2_S-glyme.$VAR
elec-cutoff 20 100
elec-eigen-algo Davidson
elec-ex-corr gga-PBE
elec-smearing Fermi 0.01
electronic-minimize  \
	dirUpdateScheme      FletcherReeves \
	linminMethod         DirUpdateRecommended \
	nIterations          100 \
	history              15 \
	knormThreshold       0 \
	energyDiffThreshold  1e-08 \
	nEnergyDiff          2 \
	alphaTstart          1 \
	alphaTmin            1e-10 \
	updateTestStepSize   yes \
	alphaTreduceFactor   0.1 \
	alphaTincreaseFactor 3 \
	nAlphaAdjustMax      3 \
	wolfeEnergy          0.0001 \
	wolfeGradient        0.9 \
	fdTest               no
exchange-regularization WignerSeitzTruncated
fluid LinearPCM 298.000000 1.013250
fluid-ex-corr lda-TF lda-PZ
fluid-gummel-loop 10 1.000000e-05
fluid-minimize  \
	dirUpdateScheme      PolakRibiere \
	linminMethod         DirUpdateRecommended \
	nIterations          400 \
	history              15 \
	knormThreshold       1e-11 \
	energyDiffThreshold  0 \
	nEnergyDiff          2 \
	alphaTstart          1 \
	alphaTmin            1e-10 \
	updateTestStepSize   yes \
	alphaTreduceFactor   0.1 \
	alphaTincreaseFactor 3 \
	nAlphaAdjustMax      6 \
	wolfeEnergy          0.0001 \
	wolfeGradient        0.9 \
	fdTest               no
fluid-solvent Glyme 9.62137 ScalarEOS \
	epsBulk 7.2 \
	pMol 0 \
	epsInf 1.9 \
	Pvap 0 \
	sigmaBulk 0 \
	Rvdw 0 \
	Res 0 \
	tauNuc 343133
forces-output-coords Positions
ion Ni  32.181130469222218  -0.000028463333331   0.611327655000000 0
ion Ni   5.363545148055554  -0.000028463333331   5.974853827499987 0
ion Ni  32.181130469222218  -5.363543250499998   5.974853827499987 0
ion Ni   5.363545148055554  -5.363543250499998   0.611327655000000 0
ion Ni  32.181130469222218 -10.727058037666666   0.611327655000000 0
ion Ni  32.181130469222218 -21.454087611999999   0.611327655000000 0
ion Ni   5.363545148055554 -21.454087611999999   5.974853827499987 0
ion Ni   5.363545148055554 -10.727058037666666   5.974853827499987 0
ion Ni  32.181130469222218 -16.090572824833334   5.974853827499987 0
ion Ni  32.181130469222218 -26.817602399166635   5.974853827499987 0
ion Ni   5.363545148055554 -26.817602399166635   0.611327655000000 0
ion Ni   5.363545148055554 -16.090572824833334   0.611327655000000 0
ion Ni  10.727071320555536  -0.000028463333331   0.611327655000000 0
ion Ni  21.454100894888885  -0.000028463333331   0.611327655000000 0
ion Ni  21.454100894888885  -5.363543250499998   5.974853827499987 0
ion Ni  10.727071320555536  -5.363543250499998   5.974853827499987 0
ion Ni  16.090574722388887  -5.363543250499998   0.611327655000000 0
ion Ni  26.817604296722191  -5.363543250499998   0.611327655000000 0
ion Ni  26.817604296722191  -0.000028463333331   5.974853827499987 0
ion Ni  16.090574722388887  -0.000028463333331   5.974853827499987 0
ion Ni  10.727071320555536 -10.727058037666666   0.611327655000000 0
ion Ni  21.454100894888885 -21.454087611999999   0.611327655000000 0
ion Ni  26.817604296722191 -21.454087611999999   5.974853827499987 0
ion Ni  16.090574722388887 -10.727058037666666   5.974853827499987 0
ion Ni  21.454100894888885 -16.090572824833334   5.974853827499987 0
ion Ni  10.727071320555536 -26.817602399166635   5.974853827499987 0
ion Ni  16.090574722388887 -26.817602399166635   0.611327655000000 0
ion Ni  26.817604296722191 -16.090572824833334   0.611327655000000 0
ion Ni  10.727071320555536 -21.454087611999999   0.611327655000000 0
ion Ni  21.454100894888885 -10.727058037666666   0.611327655000000 0
ion Ni  26.817604296722191 -10.727058037666666   5.974853827499987 0
ion Ni  16.090574722388887 -21.454087611999999   5.974853827499987 0
ion Ni  21.454100894888885 -26.817602399166635   5.974853827499987 0
ion Ni  10.727071320555536 -16.090572824833334   5.974853827499987 0
ion Ni  16.090574722388887 -16.090572824833334   0.611327655000000 0
ion Ni  26.817604296722191 -26.817602399166635   0.611327655000000 0
ion S   4.232269668888877  -4.232271970733331   7.106125994099986 0
ion S  27.948891161222189 -27.948885064266637   4.843581660899996 0
ion S   1.131317225388885 -27.948885064266637   1.742599821599998 0
ion S   9.595784456055537  -4.232271970733331  10.207107833399981 0
ion S  27.948891161222189  -9.595786757899997  10.207107833399981 0
ion S   4.232269668888877  -1.131311128433331   1.742599821599998 0
ion S   9.595784456055537  -1.131311128433331   4.843581660899996 0
ion S   1.131317225388885  -9.595786757899997   7.106125994099986 0
ion S   4.232269668888877 -14.959301545066650   7.106125994099986 0
ion S  27.948891161222189 -17.221855489933301   4.843581660899996 0
ion S   1.131317225388885 -17.221855489933301   1.742599821599998 0
ion S   9.595784456055537 -14.959301545066650  10.207107833399981 0
ion S  27.948891161222189 -20.322816332233330  10.207107833399981 0
ion S   4.232269668888877 -22.585370277100001   1.742599821599998 0
ion S   9.595784456055537 -22.585370277100001   4.843581660899996 0
ion S   1.131317225388885 -20.322816332233330   7.106125994099986 0
ion S  14.959299243222205  -4.232271970733330   7.106125994099986 0
ion S  17.221861586888888 -27.948885064266637   4.843581660899996 0
ion S  17.221861586888888  -9.595786757899997  10.207107833399981 0
ion S  14.959299243222205  -1.131311128433331   1.742599821599998 0
ion S  20.322814030388887  -1.131311128433331   4.843581660899996 0
ion S  22.585376374055553  -9.595786757899997   7.106125994099986 0
ion S  22.585376374055553 -27.948885064266637   1.742599821599998 0
ion S  20.322814030388887  -4.232271970733330  10.207107833399981 0
ion S   4.232269668888877 -25.686331119399970   7.106125994099986 0
ion S  27.948891161222189  -6.494825915599990   4.843581660899996 0
ion S   1.131317225388885  -6.494825915599990   1.742599821599998 0
ion S   9.595784456055537 -25.686331119399970  10.207107833399981 0
ion S  27.948891161222189 -31.049845906566667  10.207107833399981 0
ion S   4.232269668888877 -11.858340702766650   1.742599821599998 0
ion S   9.595784456055537 -11.858340702766650   4.843581660899996 0
ion S   1.131317225388885 -31.049845906566667   7.106125994099986 0
ion S  25.686328817555523  -4.232271970733330   7.106125994099986 0
ion S   6.494832012555547 -27.948885064266637   4.843581660899996 0
ion S   6.494832012555547  -9.595786757899997  10.207107833399981 0
ion S  25.686328817555523  -1.131311128433331   1.742599821599998 0
ion S  31.049843604722220  -1.131311128433331   4.843581660899996 0
ion S  11.858346799722206  -9.595786757899997   7.106125994099986 0
ion S  11.858346799722206 -27.948885064266637   1.742599821599998 0
ion S  31.049843604722220  -4.232271970733330  10.207107833399981 0
ion S  14.959299243222205 -14.959301545066650   7.106125994099986 0
ion S  17.221861586888888 -17.221855489933301   4.843581660899996 0
ion S  22.585376374055553 -17.221855489933301   1.742599821599998 0
ion S  20.322814030388887 -14.959301545066650  10.207107833399981 0
ion S  17.221861586888888 -20.322816332233330  10.207107833399981 0
ion S  14.959299243222205 -22.585370277100001   1.742599821599998 0
ion S  20.322814030388887 -22.585370277100001   4.843581660899996 0
ion S  22.585376374055553 -20.322816332233330   7.106125994099986 0
ion S  14.959299243222205 -25.686331119399970   7.106125994099986 0
ion S  17.221861586888888  -6.494825915599990   4.843581660899996 0
ion S  22.585376374055553  -6.494825915599990   1.742599821599998 0
ion S  20.322814030388887 -25.686331119399970  10.207107833399981 0
ion S  17.221861586888888 -31.049845906566667  10.207107833399981 0
ion S  14.959299243222205 -11.858340702766650   1.742599821599998 0
ion S  20.322814030388887 -11.858340702766650   4.843581660899996 0
ion S  22.585376374055553 -31.049845906566667   7.106125994099986 0
ion S  25.686328817555523 -14.959301545066650   7.106125994099986 0
ion S   6.494832012555547 -17.221855489933301   4.843581660899996 0
ion S  11.858346799722206 -17.221855489933301   1.742599821599998 0
ion S  31.049843604722220 -14.959301545066650  10.207107833399981 0
ion S   6.494832012555547 -20.322816332233330  10.207107833399981 0
ion S  25.686328817555523 -22.585370277100001   1.742599821599998 0
ion S  31.049843604722220 -22.585370277100001   4.843581660899996 0
ion S  11.858346799722206 -20.322816332233330   7.106125994099986 0
ion S  25.686328817555523 -25.686331119399970   7.106125994099986 0
ion S   6.494832012555547  -6.494825915599990   4.843581660899996 0
ion S  11.858346799722206  -6.494825915599990   1.742599821599998 0
ion S  31.049843604722220 -25.686331119399970  10.207107833399981 0
ion S   6.494832012555547 -31.049845906566667  10.207107833399981 0
ion S  25.686328817555523 -11.858340702766650   1.742599821599998 0
ion S  31.049843604722220 -11.858340702766650   4.843581660899996 0
ion S  11.858346799722206 -31.049845906566667   7.106125994099986 0
ion S  12.642319711647122 -25.793307367430124  12.529104720878010 1
ion S  12.949161071604479 -22.501860378998561  14.577618082938031 1
ion S  14.175315797930734 -19.431621242138309  12.221965471519050 1
ion S   7.350530056143484 -12.949947666415195  15.382043606681107 1
ion S   9.079385134805818 -11.638497314833417  12.305546182557617 1
ion S  14.317847675582973  -8.144240581830255  11.916515796245223 1
ion S  19.938608889993990 -29.081125495075227  11.890917887832625 1
ion S  23.286641178187939 -35.049094680762607  11.885063797839654 1
ion Na  26.240017054343785 -25.200739029512498  12.259180078467459 1
ion Na   3.919583914767282 -16.080523117976600  12.434641665509405 1
ion-species GBRV/$ID_pbe.uspp
ion-width Ecut
ionic-minimize  \
	dirUpdateScheme      FletcherReeves \
	linminMethod         DirUpdateRecommended \
	nIterations          200 \
	history              15 \
	knormThreshold       0.0001 \
	energyDiffThreshold  1e-06 \
	nEnergyDiff          2 \
	alphaTstart          1 \
	alphaTmin            1e-10 \
	updateTestStepSize   yes \
	alphaTreduceFactor   0.1 \
	alphaTincreaseFactor 3 \
	nAlphaAdjustMax      3 \
	wolfeEnergy          0.0001 \
	wolfeGradient        0.9 \
	fdTest               no
kpoint   0.000000000000   0.000000000000   0.000000000000  1.00000000000000
kpoint-folding 1 1 1 
latt-move-scale 1 1 1
latt-scale 1 1 1 
lattice Triclinic 32.1811 32.1811 37.7946 90 90 90
lattice-minimize  \
	dirUpdateScheme      L-BFGS \
	linminMethod         DirUpdateRecommended \
	nIterations          0 \
	history              15 \
	knormThreshold       0 \
	energyDiffThreshold  1e-06 \
	nEnergyDiff          2 \
	alphaTstart          1 \
	alphaTmin            1e-10 \
	updateTestStepSize   yes \
	alphaTreduceFactor   0.1 \
	alphaTincreaseFactor 3 \
	nAlphaAdjustMax      3 \
	wolfeEnergy          0.0001 \
	wolfeGradient        0.9 \
	fdTest               no
lcao-params -1 1e-06 0.01
pcm-variant GLSSA13
spintype no-spin
subspace-rotation-factor 1 yes
symmetries automatic
symmetry-threshold 0.0001



---------- Setting up symmetries ----------

Found 16 point-group symmetries of the bravais lattice
Found 1 space-group symmetries with basis
Applied RMS atom displacement 0 bohrs to make symmetries exact.

---------- Initializing the Grid ----------
R = 
[      32.1811            0            0  ]
[            0      32.1811            0  ]
[            0            0      37.7946  ]
unit cell volume = 39140.9
G =
[   0.195245          0          0  ]
[          0   0.195245          0  ]
[          0          0   0.166246  ]
Minimum fftbox size, Smin = [  148  148  172  ]
Chosen fftbox size, S = [  150  150  180  ]

---------- Initializing tighter grid for wavefunction operations ----------
R = 
[      32.1811            0            0  ]
[            0      32.1811            0  ]
[            0            0      37.7946  ]
unit cell volume = 39140.9
G =
[   0.195245          0          0  ]
[          0   0.195245          0  ]
[          0          0   0.166246  ]
Minimum fftbox size, Smin = [  132  132  156  ]
Chosen fftbox size, S = [  140  140  160  ]

---------- Exchange Correlation functional ----------
Initalized PBE GGA exchange.
Initalized PBE GGA correlation.

---------- Setting up pseudopotentials ----------
Width of ionic core gaussian charges (only for fluid interactions / plotting) set to 0.397384

Reading pseudopotential file '/home/akim2/jdftx_install/build/pseudopotentials/GBRV/ni_pbe.uspp':
  Title: Ni.  Created by USPP 7.3.6 on 1-4-15
  Reference state energy: -170.398381.  18 valence electrons in orbitals:
    |300>  occupation: 2  eigenvalue: -4.804705
    |310>  occupation: 6  eigenvalue: -3.347751
    |320>  occupation: 8  eigenvalue: -1.042415
    |400>  occupation: 0  eigenvalue: -0.795539
    |410>  occupation: 0  eigenvalue: -0.551375
  lMax: 2  lLocal: 3  QijEcut: 6.5
  6 projectors sampled on a log grid with 611 points:
    l: 0  eig: -4.804708  rCut: 1.44
    l: 0  eig: -0.795541  rCut: 1.44
    l: 1  eig: -3.347753  rCut: 1.55
    l: 1  eig: 0.500000  rCut: 1.55
    l: 2  eig: -1.042418  rCut: 1.5
    l: 2  eig: -0.450000  rCut: 1.5
  Partial core density with radius 0.65
  Transforming core density to a uniform radial grid of dG=0.02 with 1283 points.
  Transforming local potential to a uniform radial grid of dG=0.02 with 1283 points.
  Transforming nonlocal projectors to a uniform radial grid of dG=0.02 with 432 points.
  Transforming density augmentations to a uniform radial grid of dG=0.02 with 1283 points.
  Transforming atomic orbitals to a uniform radial grid of dG=0.02 with 432 points.
  Core radius for overlap checks: 1.55 bohrs.

Reading pseudopotential file '/home/akim2/jdftx_install/build/pseudopotentials/GBRV/s_pbe.uspp':
  Title: S.  Created by USPP 7.3.6 on 1-4-15
  Reference state energy: -11.898476.  6 valence electrons in orbitals:
    |300>  occupation: 2  eigenvalue: -0.634167
    |310>  occupation: 4  eigenvalue: -0.257568
  lMax: 2  lLocal: 3  QijEcut: 6
  6 projectors sampled on a log grid with 635 points:
    l: 0  eig: -0.634161  rCut: 1.5
    l: 0  eig: 1.500000  rCut: 1.5
    l: 1  eig: -0.257567  rCut: 1.5
    l: 1  eig: 1.500000  rCut: 1.5
    l: 2  eig: -1.000000  rCut: 1.5
    l: 2  eig: 1.500000  rCut: 1.5
  Partial core density with radius 1.15
  Transforming core density to a uniform radial grid of dG=0.02 with 1283 points.
  Transforming local potential to a uniform radial grid of dG=0.02 with 1283 points.
  Transforming nonlocal projectors to a uniform radial grid of dG=0.02 with 432 points.
  Transforming density augmentations to a uniform radial grid of dG=0.02 with 1283 points.
  Transforming atomic orbitals to a uniform radial grid of dG=0.02 with 432 points.
  Core radius for overlap checks: 1.50 bohrs.

Reading pseudopotential file '/home/akim2/jdftx_install/build/pseudopotentials/GBRV/na_pbe.uspp':
  Title: Na.  Created by USPP 7.3.6 on 23-9-15
  Reference state energy: -47.625620.  9 valence electrons in orbitals:
    |200>  occupation: 2  eigenvalue: -2.085638
    |210>  occupation: 6  eigenvalue: -1.053708
    |300>  occupation: 1  eigenvalue: -0.100838
  lMax: 2  lLocal: 0  QijEcut: 6
  5 projectors sampled on a log grid with 657 points:
    l: 0  eig: -2.085640  rCut: 1.37
    l: 0  eig: -0.100839  rCut: 1.37
    l: 1  eig: -1.053708  rCut: 1.47
    l: 1  eig: 0.500000  rCut: 1.47
    l: 2  eig: 0.750000  rCut: 2
  Transforming local potential to a uniform radial grid of dG=0.02 with 1283 points.
  Transforming nonlocal projectors to a uniform radial grid of dG=0.02 with 432 points.
  Transforming density augmentations to a uniform radial grid of dG=0.02 with 1283 points.
  Transforming atomic orbitals to a uniform radial grid of dG=0.02 with 432 points.
  Core radius for overlap checks: 2.00 bohrs.

Initialized 3 species with 118 total atoms.

Folded 1 k-points by 1x1x1 to 1 k-points.

---------- Setting up k-points, bands, fillings ----------
No reducable k-points. 
Computing the number of bands and number of electrons
Calculating initial fillings.
nElectrons: 1146.000000   nBands: 798   nStates: 1

----- Setting up reduced wavefunction bases (one per k-point) -----
average nbasis = 167141.000 , ideal nbasis = 167213.066

---------- Setting up coulomb interaction ----------
Fluid mode embedding: using embedded box, but periodic Coulomb kernel.
(Fluid response is responsible for (approximate) separation between periodic images.)
Setting up double-sized grid for truncated Coulomb potentials:
R = 
[      32.1811            0            0  ]
[            0      32.1811            0  ]
[            0            0      75.5892  ]
unit cell volume = 78281.9
G =
[   0.195245          0          0  ]
[          0   0.195245          0  ]
[          0          0  0.0831228  ]
Chosen fftbox size, S = [  150  150  360  ]
Integer grid location selected as the embedding center:
   Grid: [  0  0  48  ]
   Lattice: [  0  0  0.264588  ]
   Cartesian: [  0  0  10  ]
Constructing Wigner-Seitz cell: 6 faces (6 quadrilaterals, 0 hexagons)
Range-separation parameter for embedded mesh potentials due to point charges: 0.584339 bohrs.

---------- Setting up ewald sum ----------
Optimum gaussian width for ewald sums = 7.705783 bohr.
Real space sum over 405 unit cells with max indices [  4  4  2  ]
Reciprocal space sum over 9537 terms with max indices [  8  8  16  ]

---------- Allocating electronic variables ----------
Initializing wave functions:  linear combination of atomic orbitals
Ni pseudo-atom occupations:   s ( 2 0 )  p ( 6 0 )  d ( 10 )
S pseudo-atom occupations:   s ( 2 )  p ( 4 )
Na pseudo-atom occupations:   s ( 2 1 )  p ( 6 )
	FillingsUpdate:  mu: -1.059300729  nElectrons: 1146.000000
LCAOMinimize: Iter:   0  F: -6313.6482434629924683  |grad|_K:  3.911e-02  alpha:  1.000e+00
LCAOMinimize: 	Step increased F by 1.263858e+02, reducing alpha to 2.139394e-02.
	FillingsUpdate:  mu: -1.118834288  nElectrons: 1146.000000
LCAOMinimize: Iter:   1  F: -6334.6639410404677619  |grad|_K:  3.769e-02  alpha:  2.139e-02  linmin: -9.273e-02  cgtest:  8.766e-01  t[s]:     26.07
LCAOMinimize: 	Wrong curvature in test step, increasing alphaT to 6.418181e-02.
	FillingsUpdate:  mu: -1.100081623  nElectrons: 1146.000000
LCAOMinimize: Iter:   2  F: -6356.8434309244121323  |grad|_K:  3.722e-02  alpha: -2.396e-01  linmin: -1.209e-01  cgtest:  9.056e-01  t[s]:     31.79
LCAOMinimize: 	Step increased F by 2.121396e+02, reducing alpha to 2.138729e-02.
	FillingsUpdate:  mu: -1.116274535  nElectrons: 1146.000000
LCAOMinimize: Iter:   3  F: -6386.2077022401972499  |grad|_K:  5.761e-02  alpha:  2.139e-02  linmin: -1.790e-01  cgtest:  5.985e-01  t[s]:     42.47
LCAOMinimize: 	Wrong curvature in test step, increasing alphaT to 6.416187e-02.
	FillingsUpdate:  mu: -0.533179210  nElectrons: 1146.000000
LCAOMinimize: Iter:   4  F: -6794.9802261364566220  |grad|_K:  2.028e-01  alpha: -4.590e-03  linmin: -5.495e-02  cgtest:  4.371e-02  t[s]:     48.29
LCAOMinimize: 	Step increased F by 1.775025e+03, reducing alpha to 4.948604e-02.
LCAOMinimize: 	Step increased F by 1.754311e+03, reducing alpha to 4.948604e-03.
LCAOMinimize: 	Step increased F by 6.052851e+02, reducing alpha to 4.948604e-04.
LCAOMinimize: 	Step failed to reduce F after 3 attempts. Quitting step.
LCAOMinimize: 	Undoing step.
LCAOMinimize: 	Step failed: resetting search direction.
	FillingsUpdate:  mu: +4.796382891  nElectrons: 1146.000000
LCAOMinimize: Iter:   5  F: -6264.6173374883792349  |grad|_K:  1.667e-01  alpha:  4.949e-04
LCAOMinimize: 	Step increased F by 1.232630e+03, reducing alpha to 4.495811e-02.
	FillingsUpdate:  mu: +2.297228562  nElectrons: 1146.000000
LCAOMinimize: Iter:   6  F: -6862.8531521925342531  |grad|_K:  7.767e-02  alpha:  4.496e-02  linmin: -2.573e-01  cgtest:  8.382e-01  t[s]:     79.16
LCAOMinimize: Encountered beta<0, resetting CG.
LCAOMinimize: 	Predicted alpha/alphaT>3.000000, increasing alphaT to 1.348743e-01.
	FillingsUpdate:  mu: +0.971413055  nElectrons: 1146.000000
LCAOMinimize: Iter:   7  F: -7012.3830905263785098  |grad|_K:  2.747e-02  alpha:  3.383e-02  linmin: -1.022e-01  cgtest:  3.582e-01  t[s]:     87.26
LCAOMinimize: Encountered beta<0, resetting CG.
LCAOMinimize: 	Wrong curvature in test step, increasing alphaT to 1.015040e-01.
	FillingsUpdate:  mu: +0.608711749  nElectrons: 1146.000000
LCAOMinimize: Iter:   8  F: -7029.4542319806832893  |grad|_K:  2.296e-02  alpha: -3.598e-01  linmin: -1.880e-01  cgtest:  7.415e-01  t[s]:     93.15
	FillingsUpdate:  mu: -0.027830603  nElectrons: 1146.000000
LCAOMinimize: Iter:   9  F: -7052.8429912732126468  |grad|_K:  7.075e-02  alpha:  1.626e-01  linmin:  3.937e-02  cgtest: -1.216e-01  t[s]:     99.48
LCAOMinimize: 	Bad step direction: g.d > 0.
LCAOMinimize: 	Undoing step.
LCAOMinimize: 	Step failed: resetting search direction.
	FillingsUpdate:  mu: -0.027830603  nElectrons: 1146.000000
LCAOMinimize: Iter:  10  F: -7052.8429912732126468  |grad|_K:  7.075e-02  alpha:  0.000e+00
LCAOMinimize: 	Step increased F by 3.834232e+01, reducing alpha to 5.560448e-03.
	FillingsUpdate:  mu: -0.134972278  nElectrons: 1146.000000
LCAOMinimize: Iter:  11  F: -7065.1919342922637952  |grad|_K:  3.315e-02  alpha:  5.560e-03  linmin: -4.123e-01  cgtest:  9.288e-01  t[s]:    115.14
LCAOMinimize: Encountered beta<0, resetting CG.
	FillingsUpdate:  mu: -0.112931756  nElectrons: 1146.000000
LCAOMinimize: Iter:  12  F: -7070.7619911457259150  |grad|_K:  1.695e-02  alpha:  1.537e-02  linmin: -5.727e-02  cgtest:  3.863e-02  t[s]:    121.59
	FillingsUpdate:  mu: -0.033084315  nElectrons: 1146.000000
LCAOMinimize: Iter:  13  F: -7073.7482118538964642  |grad|_K:  8.538e-03  alpha:  3.095e-02  linmin:  1.679e-02  cgtest: -4.932e-02  t[s]:    128.02
	FillingsUpdate:  mu: -0.019480824  nElectrons: 1146.000000
LCAOMinimize: Iter:  14  F: -7074.2552115457483524  |grad|_K:  5.497e-03  alpha:  2.177e-02  linmin:  2.559e-03  cgtest:  1.064e-01  t[s]:    134.46
	FillingsUpdate:  mu: +0.012252007  nElectrons: 1146.000000
LCAOMinimize: Iter:  15  F: -7074.7836170597165619  |grad|_K:  7.024e-03  alpha:  6.023e-02  linmin:  2.922e-02  cgtest: -7.201e-02  t[s]:    141.52
	FillingsUpdate:  mu: +0.003127176  nElectrons: 1146.000000
LCAOMinimize: Iter:  16  F: -7075.0235983907850823  |grad|_K:  5.107e-03  alpha:  1.801e-02  linmin: -1.051e-03  cgtest:  5.273e-01  t[s]:    147.91
	FillingsUpdate:  mu: -0.022286773  nElectrons: 1146.000000
LCAOMinimize: Iter:  17  F: -7075.2630087863317385  |grad|_K:  3.560e-03  alpha:  2.926e-02  linmin:  1.871e-02  cgtest: -8.516e-02  t[s]:    154.35
	FillingsUpdate:  mu: -0.028739481  nElectrons: 1146.000000
LCAOMinimize: Iter:  18  F: -7075.3822984117678061  |grad|_K:  3.194e-03  alpha:  3.100e-02  linmin:  2.306e-03  cgtest:  1.534e-01  t[s]:    160.76
	FillingsUpdate:  mu: -0.038892313  nElectrons: 1146.000000
LCAOMinimize: Iter:  19  F: -7075.4994097446769956  |grad|_K:  2.137e-03  alpha:  3.628e-02  linmin:  2.944e-03  cgtest: -3.621e-02  t[s]:    167.18
	FillingsUpdate:  mu: -0.042289713  nElectrons: 1146.000000
LCAOMinimize: Iter:  20  F: -7075.5343552704453032  |grad|_K:  1.828e-03  alpha:  2.417e-02  linmin: -4.238e-06  cgtest:  2.518e-02  t[s]:    173.57
	FillingsUpdate:  mu: -0.033450334  nElectrons: 1146.000000
LCAOMinimize: Iter:  21  F: -7075.5798080286585900  |grad|_K:  1.492e-03  alpha:  4.320e-02  linmin:  7.503e-03  cgtest: -2.668e-02  t[s]:    179.91
	FillingsUpdate:  mu: -0.033390673  nElectrons: 1146.000000
LCAOMinimize: Iter:  22  F: -7075.6110383730901958  |grad|_K:  1.409e-03  alpha:  4.542e-02  linmin:  1.963e-03  cgtest:  8.956e-02  t[s]:    186.32
	FillingsUpdate:  mu: -0.045265935  nElectrons: 1146.000000
LCAOMinimize: Iter:  23  F: -7075.6253127981672151  |grad|_K:  7.361e-04  alpha:  2.256e-02  linmin: -1.275e-03  cgtest:  3.574e-02  t[s]:    192.74
	FillingsUpdate:  mu: -0.048668980  nElectrons: 1146.000000
LCAOMinimize: Iter:  24  F: -7075.6311040064883855  |grad|_K:  6.490e-04  alpha:  3.340e-02  linmin:  7.384e-04  cgtest: -9.127e-03  t[s]:    199.16
	FillingsUpdate:  mu: -0.051940863  nElectrons: 1146.000000
LCAOMinimize: Iter:  25  F: -7075.6348171956287842  |grad|_K:  4.886e-04  alpha:  2.771e-02  linmin: -6.563e-05  cgtest:  1.233e-02  t[s]:    205.51
	FillingsUpdate:  mu: -0.053739686  nElectrons: 1146.000000
LCAOMinimize: Iter:  26  F: -7075.6375659125842503  |grad|_K:  4.151e-04  alpha:  3.608e-02  linmin:  4.358e-04  cgtest:  1.267e-03  t[s]:    211.84
	FillingsUpdate:  mu: -0.053560281  nElectrons: 1146.000000
LCAOMinimize: Iter:  27  F: -7075.6390699267531090  |grad|_K:  2.670e-04  alpha:  2.740e-02  linmin:  4.291e-05  cgtest:  3.983e-03  t[s]:    218.14
	FillingsUpdate:  mu: -0.055263151  nElectrons: 1146.000000
LCAOMinimize: Iter:  28  F: -7075.6403716825461743  |grad|_K:  2.515e-04  alpha:  5.723e-02  linmin:  4.469e-05  cgtest:  2.988e-03  t[s]:    224.48
	FillingsUpdate:  mu: -0.056056064  nElectrons: 1146.000000
LCAOMinimize: Iter:  29  F: -7075.6408764830475775  |grad|_K:  1.927e-04  alpha:  2.499e-02  linmin: -7.128e-05  cgtest:  1.268e-03  t[s]:    230.82
	FillingsUpdate:  mu: -0.056565102  nElectrons: 1146.000000
LCAOMinimize: Iter:  30  F: -7075.6412397334715934  |grad|_K:  1.597e-04  alpha:  3.065e-02  linmin:  5.476e-05  cgtest: -2.122e-03  t[s]:    237.20
LCAOMinimize: None of the convergence criteria satisfied after 30 iterations.
----- createFluidSolver() ----- (Fluid-side solver setup)
   Initializing fluid molecule 'Glyme'
     Net charge: 0   dipole magnitude: 0
     Initializing spherical shell mfKernel with radius 0 Bohr
     deltaS corrections:

Correction to mu due to finite nuclear width = -0.0145252
   Cavity determined by nc: 8.36e-05 and sigma: 0.6
   Effective cavity tension: -8.03e-06 Eh/bohr^2 to account for cavitation and dispersion.


---- Citations for features of the code used in this run ----

   Software package:
      R. Sundararaman, K. Letchworth-Weaver, K.A. Schwarz, D. Gunceler, Y. Ozhabes and T.A. Arias, 'JDFTx: software for joint density-functional theory', SoftwareX 6, 278 (2017)

   gga-PBE exchange-correlation functional:
      J.P. Perdew, K. Burke and M. Ernzerhof, Phys. Rev. Lett. 77, 3865 (1996)

   Pseudopotentials:
      KF Garrity, JW Bennett, KM Rabe and D Vanderbilt, Comput. Mater. Sci. 81, 446 (2014)

   Truncated Coulomb potentials:
      R. Sundararaman and T.A. Arias, Phys. Rev. B 87, 165122 (2013)

   Linear/nonlinear dielectric/ionic fluid model with effective cavity tension:
      D. Gunceler, K. Letchworth-Weaver, R. Sundararaman, K.A. Schwarz and T.A. Arias, Modelling Simul. Mater. Sci. Eng. 21, 074005 (2013)

   Total energy minimization with Auxiliary Hamiltonian:
      C. Freysoldt, S. Boeck, and J. Neugebauer, Phys. Rev. B 79, 241103(R) (2009)

This list may not be complete. Please suggest additional citations or
report any other bugs at https://github.com/shankar1729/jdftx/issues

Initialization completed successfully at t[s]:    238.92

Fluid solver invoked on fresh (random / LCAO) wavefunctions
Running a vacuum solve first:

-------- Initial electronic minimization -----------
	FillingsUpdate:  mu: -0.056565102  nElectrons: 1146.000000
ElecMinimize: Iter:   0  F: -7075.641239733476141  |grad|_K:  2.257e-04  alpha:  1.000e+00
	FillingsUpdate:  mu: -0.098829947  nElectrons: 1146.000000
	SubspaceRotationAdjust: set factor to 0.684
ElecMinimize: Iter:   1  F: -7077.790920647284111  |grad|_K:  3.408e-04  alpha:  3.079e-01  linmin: -1.077e-05  t[s]:    256.70
	FillingsUpdate:  mu: +0.014694770  nElectrons: 1146.000000
	SubspaceRotationAdjust: set factor to 0.378
ElecMinimize: Iter:   2  F: -7077.853656836449773  |grad|_K:  5.942e-04  alpha:  6.121e-02  linmin:  3.603e-04  t[s]:    267.83
	FillingsUpdate:  mu: +0.046261279  nElectrons: 1146.000000
	SubspaceRotationAdjust: set factor to 0.219
ElecMinimize: Iter:   3  F: -7078.018864284826122  |grad|_K:  5.058e-04  alpha:  1.797e-02  linmin:  1.324e-05  t[s]:    278.94
	FillingsUpdate:  mu: -0.004940901  nElectrons: 1146.000000
	SubspaceRotationAdjust: set factor to 0.277
ElecMinimize: Iter:   4  F: -7079.491981625222252  |grad|_K:  2.335e-04  alpha:  4.316e-02  linmin: -2.175e-05  t[s]:    289.92
	FillingsUpdate:  mu: -0.006877778  nElectrons: 1146.000000
	SubspaceRotationAdjust: set factor to 0.245
ElecMinimize: Iter:   5  F: -7080.183435301124518  |grad|_K:  1.944e-04  alpha:  9.042e-02  linmin:  3.080e-06  t[s]:    300.92
	FillingsUpdate:  mu: -0.038691743  nElectrons: 1146.000000
	SubspaceRotationAdjust: set factor to 0.255
ElecMinimize: Iter:   6  F: -7080.573397516945988  |grad|_K:  1.313e-04  alpha:  7.778e-02  linmin: -7.665e-06  t[s]:    311.96
	FillingsUpdate:  mu: -0.026775268  nElectrons: 1146.000000
	SubspaceRotationAdjust: set factor to 0.272
ElecMinimize: Iter:   7  F: -7080.839293333486239  |grad|_K:  1.424e-04  alpha:  1.138e-01  linmin: -1.449e-05  t[s]:    323.09
	FillingsUpdate:  mu: -0.059946821  nElectrons: 1146.000000
	SubspaceRotationAdjust: set factor to 0.236
ElecMinimize: Iter:   8  F: -7081.216918399690258  |grad|_K:  1.299e-04  alpha:  1.372e-01  linmin:  7.590e-06  t[s]:    334.22
	FillingsUpdate:  mu: -0.099094100  nElectrons: 1146.000000
	SubspaceRotationAdjust: set factor to 0.325
ElecMinimize: Iter:   9  F: -7081.377067644789349  |grad|_K:  7.825e-05  alpha:  6.975e-02  linmin: -2.224e-05  t[s]:    345.36
	FillingsUpdate:  mu: -0.096594495  nElectrons: 1146.000000
	SubspaceRotationAdjust: set factor to 0.346
ElecMinimize: Iter:  10  F: -7081.460135207898020  |grad|_K:  7.855e-05  alpha:  1.008e-01  linmin:  4.116e-05  t[s]:    356.53
	FillingsUpdate:  mu: -0.079853538  nElectrons: 1146.000000
	SubspaceRotationAdjust: set factor to 0.321
ElecMinimize: Iter:  11  F: -7081.536432078567486  |grad|_K:  7.576e-05  alpha:  9.348e-02  linmin:  1.698e-05  t[s]:    367.66
	FillingsUpdate:  mu: -0.071866833  nElectrons: 1146.000000
	SubspaceRotationAdjust: set factor to 0.228
ElecMinimize: Iter:  12  F: -7081.603869218980435  |grad|_K:  6.274e-05  alpha:  8.819e-02  linmin: -5.084e-06  t[s]:    378.80
	FillingsUpdate:  mu: -0.077676890  nElectrons: 1146.000000
	SubspaceRotationAdjust: set factor to 0.219
ElecMinimize: Iter:  13  F: -7081.642316843727713  |grad|_K:  4.316e-05  alpha:  7.292e-02  linmin:  3.002e-06  t[s]:    389.95
	FillingsUpdate:  mu: -0.082151876  nElectrons: 1146.000000
	SubspaceRotationAdjust: set factor to 0.173
ElecMinimize: Iter:  14  F: -7081.674009203106834  |grad|_K:  4.403e-05  alpha:  1.272e-01  linmin: -3.796e-06  t[s]:    401.10
	FillingsUpdate:  mu: -0.084221467  nElectrons: 1146.000000
	SubspaceRotationAdjust: set factor to 0.221
ElecMinimize: Iter:  15  F: -7081.704757294160117  |grad|_K:  3.435e-05  alpha:  1.184e-01  linmin: -6.804e-06  t[s]:    412.23
	FillingsUpdate:  mu: -0.083894261  nElectrons: 1146.000000
	SubspaceRotationAdjust: set factor to 0.243
ElecMinimize: Iter:  16  F: -7081.724353663620604  |grad|_K:  2.790e-05  alpha:  1.232e-01  linmin: -5.470e-06  t[s]:    423.35
	FillingsUpdate:  mu: -0.086797555  nElectrons: 1146.000000
	SubspaceRotationAdjust: set factor to 0.318
ElecMinimize: Iter:  17  F: -7081.736895210351577  |grad|_K:  2.365e-05  alpha:  1.198e-01  linmin:  2.841e-07  t[s]:    434.44
	FillingsUpdate:  mu: -0.089637796  nElectrons: 1146.000000
	SubspaceRotationAdjust: set factor to 0.312
ElecMinimize: Iter:  18  F: -7081.746805562607733  |grad|_K:  2.431e-05  alpha:  1.327e-01  linmin:  1.428e-06  t[s]:    445.61
	FillingsUpdate:  mu: -0.089346157  nElectrons: 1146.000000
	SubspaceRotationAdjust: set factor to 0.342
ElecMinimize: Iter:  19  F: -7081.756327004237392  |grad|_K:  2.071e-05  alpha:  1.209e-01  linmin:  5.757e-07  t[s]:    456.75
	FillingsUpdate:  mu: -0.088224498  nElectrons: 1146.000000
	SubspaceRotationAdjust: set factor to 0.387
ElecMinimize: Iter:  20  F: -7081.762370284705867  |grad|_K:  1.741e-05  alpha:  1.056e-01  linmin:  2.911e-08  t[s]:    467.86
	FillingsUpdate:  mu: -0.088135830  nElectrons: 1146.000000
	SubspaceRotationAdjust: set factor to 0.372
ElecMinimize: Iter:  21  F: -7081.766257535416116  |grad|_K:  1.428e-05  alpha:  9.589e-02  linmin:  1.464e-08  t[s]:    479.02
	FillingsUpdate:  mu: -0.087698205  nElectrons: 1146.000000
	SubspaceRotationAdjust: set factor to 0.342
ElecMinimize: Iter:  22  F: -7081.769685289626068  |grad|_K:  1.463e-05  alpha:  1.258e-01  linmin:  1.612e-07  t[s]:    490.13
	FillingsUpdate:  mu: -0.088097203  nElectrons: 1146.000000
	SubspaceRotationAdjust: set factor to 0.379
ElecMinimize: Iter:  23  F: -7081.772558368316822  |grad|_K:  1.198e-05  alpha:  1.004e-01  linmin:  2.667e-08  t[s]:    501.28
	FillingsUpdate:  mu: -0.089808783  nElectrons: 1146.000000
	SubspaceRotationAdjust: set factor to 0.436
ElecMinimize: Iter:  24  F: -7081.774487685350323  |grad|_K:  9.074e-06  alpha:  1.006e-01  linmin:  2.871e-07  t[s]:    512.84
	FillingsUpdate:  mu: -0.090814029  nElectrons: 1146.000000
	SubspaceRotationAdjust: set factor to 0.424
ElecMinimize: Iter:  25  F: -7081.775619386587096  |grad|_K:  9.149e-06  alpha:  1.029e-01  linmin: -2.367e-08  t[s]:    523.96
	FillingsUpdate:  mu: -0.090422582  nElectrons: 1146.000000
	SubspaceRotationAdjust: set factor to 0.451
ElecMinimize: Iter:  26  F: -7081.776737650130599  |grad|_K:  7.545e-06  alpha:  9.992e-02  linmin: -2.889e-07  t[s]:    535.09
	FillingsUpdate:  mu: -0.089574736  nElectrons: 1146.000000
	SubspaceRotationAdjust: set factor to 0.497
ElecMinimize: Iter:  27  F: -7081.777476782055601  |grad|_K:  5.933e-06  alpha:  9.702e-02  linmin: -3.465e-07  t[s]:    546.19
	FillingsUpdate:  mu: -0.089431861  nElectrons: 1146.000000
	SubspaceRotationAdjust: set factor to 0.451
ElecMinimize: Iter:  28  F: -7081.777863455474289  |grad|_K:  5.299e-06  alpha:  8.209e-02  linmin:  9.300e-08  t[s]:    557.29
	FillingsUpdate:  mu: -0.089445467  nElectrons: 1146.000000
	SubspaceRotationAdjust: set factor to 0.468
ElecMinimize: Iter:  29  F: -7081.778215552170877  |grad|_K:  4.140e-06  alpha:  9.382e-02  linmin:  4.189e-07  t[s]:    568.38
	FillingsUpdate:  mu: -0.089521110  nElectrons: 1146.000000
	SubspaceRotationAdjust: set factor to 0.487
ElecMinimize: Iter:  30  F: -7081.778473536718593  |grad|_K:  4.046e-06  alpha:  1.127e-01  linmin:  3.694e-07  t[s]:    579.34
	FillingsUpdate:  mu: -0.089708776  nElectrons: 1146.000000
	SubspaceRotationAdjust: set factor to 0.457
ElecMinimize: Iter:  31  F: -7081.778648798303038  |grad|_K:  3.290e-06  alpha:  8.011e-02  linmin:  2.916e-07  t[s]:    590.38
	FillingsUpdate:  mu: -0.089527515  nElectrons: 1146.000000
	SubspaceRotationAdjust: set factor to 0.456
ElecMinimize: Iter:  32  F: -7081.778803758230424  |grad|_K:  2.782e-06  alpha:  1.072e-01  linmin:  6.588e-07  t[s]:    601.50
	FillingsUpdate:  mu: -0.089296784  nElectrons: 1146.000000
	SubspaceRotationAdjust: set factor to 0.393
ElecMinimize: Iter:  33  F: -7081.778900293837978  |grad|_K:  2.475e-06  alpha:  9.336e-02  linmin:  4.072e-07  t[s]:    612.64
	FillingsUpdate:  mu: -0.089461980  nElectrons: 1146.000000
	SubspaceRotationAdjust: set factor to 0.412
ElecMinimize: Iter:  34  F: -7081.778973584352570  |grad|_K:  1.888e-06  alpha:  8.956e-02  linmin:  4.484e-07  t[s]:    623.76
	FillingsUpdate:  mu: -0.089644668  nElectrons: 1146.000000
	SubspaceRotationAdjust: set factor to 0.38
ElecMinimize: Iter:  35  F: -7081.779028981905867  |grad|_K:  1.822e-06  alpha:  1.163e-01  linmin:  4.953e-07  t[s]:    634.87
	FillingsUpdate:  mu: -0.089506926  nElectrons: 1146.000000
	SubspaceRotationAdjust: set factor to 0.422
ElecMinimize: Iter:  36  F: -7081.779076267755045  |grad|_K:  1.646e-06  alpha:  1.066e-01  linmin:  3.316e-07  t[s]:    645.95
	FillingsUpdate:  mu: -0.089385470  nElectrons: 1146.000000
	SubspaceRotationAdjust: set factor to 0.476
ElecMinimize: Iter:  37  F: -7081.779113938662704  |grad|_K:  1.303e-06  alpha:  1.041e-01  linmin:  4.097e-07  t[s]:    657.06
	FillingsUpdate:  mu: -0.089362017  nElectrons: 1146.000000
	SubspaceRotationAdjust: set factor to 0.446
ElecMinimize: Iter:  38  F: -7081.779136868372007  |grad|_K:  1.266e-06  alpha:  1.012e-01  linmin:  2.768e-07  t[s]:    668.15
	FillingsUpdate:  mu: -0.089302391  nElectrons: 1146.000000
	SubspaceRotationAdjust: set factor to 0.433
ElecMinimize: Iter:  39  F: -7081.779156673878788  |grad|_K:  1.049e-06  alpha:  9.247e-02  linmin:  1.695e-07  t[s]:    679.23
	FillingsUpdate:  mu: -0.089390222  nElectrons: 1146.000000
	SubspaceRotationAdjust: set factor to 0.417
ElecMinimize: Iter:  40  F: -7081.779171839733863  |grad|_K:  8.850e-07  alpha:  1.031e-01  linmin:  1.480e-07  t[s]:    690.32
	FillingsUpdate:  mu: -0.089488524  nElectrons: 1146.000000
	SubspaceRotationAdjust: set factor to 0.442
ElecMinimize: Iter:  41  F: -7081.779181566375883  |grad|_K:  7.422e-07  alpha:  9.292e-02  linmin:  9.824e-08  t[s]:    701.41
	FillingsUpdate:  mu: -0.089446051  nElectrons: 1146.000000
	SubspaceRotationAdjust: set factor to 0.432
ElecMinimize: Iter:  42  F: -7081.779188624485869  |grad|_K:  6.174e-07  alpha:  9.588e-02  linmin:  7.775e-08  t[s]:    712.48
	FillingsUpdate:  mu: -0.089391006  nElectrons: 1146.000000
	SubspaceRotationAdjust: set factor to 0.409
ElecMinimize: Iter:  43  F: -7081.779194620841736  |grad|_K:  5.921e-07  alpha:  1.177e-01  linmin:  8.825e-08  t[s]:    723.55
	FillingsUpdate:  mu: -0.089411934  nElectrons: 1146.000000
	SubspaceRotationAdjust: set factor to 0.423
ElecMinimize: Iter:  44  F: -7081.779198973377788  |grad|_K:  5.046e-07  alpha:  9.290e-02  linmin:  4.491e-08  t[s]:    734.61
	FillingsUpdate:  mu: -0.089402779  nElectrons: 1146.000000
	SubspaceRotationAdjust: set factor to 0.501
ElecMinimize: Iter:  45  F: -7081.779202258449004  |grad|_K:  3.680e-07  alpha:  9.653e-02  linmin:  4.789e-08  t[s]:    745.72
	FillingsUpdate:  mu: -0.089380200  nElectrons: 1146.000000
	SubspaceRotationAdjust: set factor to 0.445
ElecMinimize: Iter:  46  F: -7081.779204246673544  |grad|_K:  3.837e-07  alpha:  1.098e-01  linmin:  2.793e-08  t[s]:    756.80
	FillingsUpdate:  mu: -0.089392169  nElectrons: 1146.000000
	SubspaceRotationAdjust: set factor to 0.464
ElecMinimize: Iter:  47  F: -7081.779205764878498  |grad|_K:  2.822e-07  alpha:  7.714e-02  linmin:  3.746e-08  t[s]:    767.91
	FillingsUpdate:  mu: -0.089394110  nElectrons: 1146.000000
	SubspaceRotationAdjust: set factor to 0.511
ElecMinimize: Iter:  48  F: -7081.779206895912466  |grad|_K:  2.481e-07  alpha:  1.062e-01  linmin:  8.701e-09  t[s]:    779.03
	FillingsUpdate:  mu: -0.089398164  nElectrons: 1146.000000
	SubspaceRotationAdjust: set factor to 0.437
ElecMinimize: Iter:  49  F: -7081.779207708154900  |grad|_K:  2.465e-07  alpha:  9.872e-02  linmin:  3.693e-08  t[s]:    790.10
	FillingsUpdate:  mu: -0.089433244  nElectrons: 1146.000000
	SubspaceRotationAdjust: set factor to 0.461
ElecMinimize: Iter:  50  F: -7081.779208346493760  |grad|_K:  1.867e-07  alpha:  7.860e-02  linmin:  3.665e-08  t[s]:    801.18
	FillingsUpdate:  mu: -0.089449566  nElectrons: 1146.000000
	SubspaceRotationAdjust: set factor to 0.411
ElecMinimize: Iter:  51  F: -7081.779208932984147  |grad|_K:  1.846e-07  alpha:  1.259e-01  linmin:  2.035e-08  t[s]:    812.24
	FillingsUpdate:  mu: -0.089427985  nElectrons: 1146.000000
	SubspaceRotationAdjust: set factor to 0.424
ElecMinimize: Iter:  52  F: -7081.779209293996246  |grad|_K:  1.435e-07  alpha:  7.921e-02  linmin:  2.989e-08  t[s]:    823.31
	FillingsUpdate:  mu: -0.089411577  nElectrons: 1146.000000
	SubspaceRotationAdjust: set factor to 0.426
ElecMinimize: Iter:  53  F: -7081.779209586112302  |grad|_K:  1.254e-07  alpha:  1.061e-01  linmin:  6.518e-08  t[s]:    834.45
	FillingsUpdate:  mu: -0.089410606  nElectrons: 1146.000000
	SubspaceRotationAdjust: set factor to 0.382
ElecMinimize: Iter:  54  F: -7081.779209805959908  |grad|_K:  1.187e-07  alpha:  1.046e-01  linmin:  1.621e-08  t[s]:    845.54
	FillingsUpdate:  mu: -0.089407743  nElectrons: 1146.000000
	SubspaceRotationAdjust: set factor to 0.414
ElecMinimize: Iter:  55  F: -7081.779209978758445  |grad|_K:  9.401e-08  alpha:  9.173e-02  linmin:  6.332e-08  t[s]:    856.60
	FillingsUpdate:  mu: -0.089413885  nElectrons: 1146.000000
	SubspaceRotationAdjust: set factor to 0.457
ElecMinimize: Iter:  56  F: -7081.779210114323178  |grad|_K:  8.645e-08  alpha:  1.148e-01  linmin: -5.083e-08  t[s]:    867.65
	FillingsUpdate:  mu: -0.089420843  nElectrons: 1146.000000
	SubspaceRotationAdjust: set factor to 0.461
ElecMinimize: Iter:  57  F: -7081.779210205540949  |grad|_K:  7.546e-08  alpha:  9.114e-02  linmin:  2.229e-08  t[s]:    878.69
	FillingsUpdate:  mu: -0.089415241  nElectrons: 1146.000000
	SubspaceRotationAdjust: set factor to 0.497
ElecMinimize: Iter:  58  F: -7081.779210283593784  |grad|_K:  6.726e-08  alpha:  1.026e-01  linmin:  7.491e-08  t[s]:    889.78
	FillingsUpdate:  mu: -0.089411826  nElectrons: 1146.000000
	SubspaceRotationAdjust: set factor to 0.463
ElecMinimize: Iter:  59  F: -7081.779210341845101  |grad|_K:  6.053e-08  alpha:  9.630e-02  linmin: -3.600e-08  t[s]:    900.85
	FillingsUpdate:  mu: -0.089416991  nElectrons: 1146.000000
	SubspaceRotationAdjust: set factor to 0.468
ElecMinimize: Iter:  60  F: -7081.779210381621851  |grad|_K:  4.989e-08  alpha:  8.120e-02  linmin: -5.028e-08  t[s]:    911.92
	FillingsUpdate:  mu: -0.089419141  nElectrons: 1146.000000
	SubspaceRotationAdjust: set factor to 0.525
ElecMinimize: Iter:  61  F: -7081.779210415222224  |grad|_K:  4.189e-08  alpha:  1.008e-01  linmin: -8.555e-09  t[s]:    922.98
	FillingsUpdate:  mu: -0.089416623  nElectrons: 1146.000000
	SubspaceRotationAdjust: set factor to 0.479
ElecMinimize: Iter:  62  F: -7081.779210438375230  |grad|_K:  4.321e-08  alpha:  9.860e-02  linmin:  7.478e-08  t[s]:    934.03
	FillingsUpdate:  mu: -0.089415502  nElectrons: 1146.000000
	SubspaceRotationAdjust: set factor to 0.487
ElecMinimize: Iter:  63  F: -7081.779210457677436  |grad|_K:  3.193e-08  alpha:  7.759e-02  linmin: -2.407e-08  t[s]:    945.08
	FillingsUpdate:  mu: -0.089414207  nElectrons: 1146.000000
	SubspaceRotationAdjust: set factor to 0.44
ElecMinimize: Iter:  64  F: -7081.779210473408057  |grad|_K:  3.179e-08  alpha:  1.160e-01  linmin:  1.972e-07  t[s]:    956.13
	FillingsUpdate:  mu: -0.089413828  nElectrons: 1146.000000
	SubspaceRotationAdjust: set factor to 0.455
ElecMinimize: Iter:  65  F: -7081.779210483779025  |grad|_K:  2.484e-08  alpha:  7.768e-02  linmin:  1.184e-07  t[s]:    967.17
	FillingsUpdate:  mu: -0.089416165  nElectrons: 1146.000000
	SubspaceRotationAdjust: set factor to 0.466
ElecMinimize: Iter:  66  F: -7081.779210491652520  |grad|_K:  2.190e-08  alpha:  9.630e-02  linmin:  1.506e-07  t[s]:    978.20
	FillingsUpdate:  mu: -0.089418284  nElectrons: 1146.000000
	SubspaceRotationAdjust: set factor to 0.4
ElecMinimize: Iter:  67  F: -7081.779210499331384  |grad|_K:  2.240e-08  alpha:  1.195e-01  linmin:  3.633e-09  t[s]:    989.23
ElecMinimize: Converged (|Delta F|<1.000000e-08 for 2 iters).
Setting wave functions to eigenvectors of Hamiltonian
Vacuum energy after initial minimize, F = -7081.779210499331384


-------- Electronic minimization -----------
	Linear fluid (dielectric constant: 7.2) occupying 0.730128 of unit cell:	Completed after 12 iterations at t[s]:    990.92
	FillingsUpdate:  mu: -0.102957525  nElectrons: 1146.000000
ElecMinimize: Iter:   0  F: -7081.824808880239289  |grad|_K:  1.480e-05  alpha:  1.000e+00
	Linear fluid (dielectric constant: 7.2) occupying 0.730981 of unit cell:	Completed after 12 iterations at t[s]:   1000.08
	Linear fluid (dielectric constant: 7.2) occupying 0.730212 of unit cell:	Completed after 11 iterations at t[s]:   1003.32
	FillingsUpdate:  mu: -0.104918829  nElectrons: 1146.000000
	SubspaceRotationAdjust: set factor to 0.281
ElecMinimize: Iter:   1  F: -7081.827210574631863  |grad|_K:  9.881e-06  alpha:  8.178e-02  linmin: -8.759e-05  t[s]:   1007.87
	Linear fluid (dielectric constant: 7.2) occupying 0.730338 of unit cell:	Completed after 6 iterations at t[s]:   1011.81
	Linear fluid (dielectric constant: 7.2) occupying 0.730559 of unit cell:	Completed after 7 iterations at t[s]:   1014.89
	FillingsUpdate:  mu: -0.104708640  nElectrons: 1146.000000
	SubspaceRotationAdjust: set factor to 0.254
ElecMinimize: Iter:   2  F: -7081.830163853822341  |grad|_K:  9.247e-06  alpha:  2.335e-01  linmin:  1.358e-04  t[s]:   1019.45
	Linear fluid (dielectric constant: 7.2) occupying 0.730953 of unit cell:	Completed after 9 iterations at t[s]:   1023.39
	Linear fluid (dielectric constant: 7.2) occupying 0.730918 of unit cell:	Completed after 5 iterations at t[s]:   1026.42
	FillingsUpdate:  mu: -0.103040941  nElectrons: 1146.000000
	SubspaceRotationAdjust: set factor to 0.279
ElecMinimize: Iter:   3  F: -7081.832417304217415  |grad|_K:  7.808e-06  alpha:  2.095e-01  linmin:  1.390e-05  t[s]:   1030.95
	Linear fluid (dielectric constant: 7.2) occupying 0.731239 of unit cell:	Completed after 9 iterations at t[s]:   1034.89
	Linear fluid (dielectric constant: 7.2) occupying 0.731164 of unit cell:	Completed after 6 iterations at t[s]:   1037.95
	FillingsUpdate:  mu: -0.102599146  nElectrons: 1146.000000
	SubspaceRotationAdjust: set factor to 0.247
ElecMinimize: Iter:   4  F: -7081.833706425534729  |grad|_K:  6.456e-06  alpha:  1.589e-01  linmin:  2.459e-06  t[s]:   1042.49
	Linear fluid (dielectric constant: 7.2) occupying 0.731359 of unit cell:	Completed after 8 iterations at t[s]:   1046.43
	Linear fluid (dielectric constant: 7.2) occupying 0.731425 of unit cell:	Completed after 6 iterations at t[s]:   1049.50
	FillingsUpdate:  mu: -0.102462663  nElectrons: 1146.000000
	SubspaceRotationAdjust: set factor to 0.235
ElecMinimize: Iter:   5  F: -7081.834898272100872  |grad|_K:  5.674e-06  alpha:  2.151e-01  linmin:  7.055e-06  t[s]:   1054.02
	Linear fluid (dielectric constant: 7.2) occupying 0.731539 of unit cell:	Completed after 8 iterations at t[s]:   1057.95
	Linear fluid (dielectric constant: 7.2) occupying 0.731552 of unit cell:	Completed after 5 iterations at t[s]:   1060.99
	FillingsUpdate:  mu: -0.102236596  nElectrons: 1146.000000
	SubspaceRotationAdjust: set factor to 0.271
ElecMinimize: Iter:   6  F: -7081.835923474865012  |grad|_K:  4.536e-06  alpha:  2.397e-01  linmin: -2.459e-06  t[s]:   1065.50
	Linear fluid (dielectric constant: 7.2) occupying 0.731511 of unit cell:	Completed after 7 iterations at t[s]:   1069.42
	Linear fluid (dielectric constant: 7.2) occupying 0.731523 of unit cell:	Completed after 5 iterations at t[s]:   1072.47
	FillingsUpdate:  mu: -0.101827529  nElectrons: 1146.000000
	SubspaceRotationAdjust: set factor to 0.241
ElecMinimize: Iter:   7  F: -7081.836404931158540  |grad|_K:  4.040e-06  alpha:  1.743e-01  linmin:  6.784e-06  t[s]:   1077.00
	Linear fluid (dielectric constant: 7.2) occupying 0.731435 of unit cell:	Completed after 6 iterations at t[s]:   1080.91
	Linear fluid (dielectric constant: 7.2) occupying 0.731425 of unit cell:	Completed after 3 iterations at t[s]:   1083.91
	FillingsUpdate:  mu: -0.101646333  nElectrons: 1146.000000
	SubspaceRotationAdjust: set factor to 0.229
ElecMinimize: Iter:   8  F: -7081.836823644940523  |grad|_K:  3.408e-06  alpha:  1.936e-01  linmin:  2.018e-05  t[s]:   1088.43
	Linear fluid (dielectric constant: 7.2) occupying 0.731355 of unit cell:	Completed after 6 iterations at t[s]:   1092.33
	Linear fluid (dielectric constant: 7.2) occupying 0.731345 of unit cell:	Completed after 3 iterations at t[s]:   1095.35
	FillingsUpdate:  mu: -0.102272042  nElectrons: 1146.000000
	SubspaceRotationAdjust: set factor to 0.253
ElecMinimize: Iter:   9  F: -7081.837156476583914  |grad|_K:  2.488e-06  alpha:  2.192e-01  linmin:  2.796e-05  t[s]:   1099.87
	Linear fluid (dielectric constant: 7.2) occupying 0.731328 of unit cell:	Completed after 5 iterations at t[s]:   1103.82
	Linear fluid (dielectric constant: 7.2) occupying 0.731325 of unit cell:	Completed after 3 iterations at t[s]:   1106.84
	FillingsUpdate:  mu: -0.102277685  nElectrons: 1146.000000
	SubspaceRotationAdjust: set factor to 0.264
ElecMinimize: Iter:  10  F: -7081.837362977980774  |grad|_K:  2.485e-06  alpha:  2.560e-01  linmin:  3.093e-05  t[s]:   1111.36
	Linear fluid (dielectric constant: 7.2) occupying 0.731239 of unit cell:	Completed after 6 iterations at t[s]:   1115.29
	Linear fluid (dielectric constant: 7.2) occupying 0.731270 of unit cell:	Completed after 4 iterations at t[s]:   1118.34
	FillingsUpdate:  mu: -0.101824494  nElectrons: 1146.000000
	SubspaceRotationAdjust: set factor to 0.232
ElecMinimize: Iter:  11  F: -7081.837500435115544  |grad|_K:  2.118e-06  alpha:  1.703e-01  linmin:  2.440e-05  t[s]:   1122.89
	Linear fluid (dielectric constant: 7.2) occupying 0.731160 of unit cell:	Completed after 5 iterations at t[s]:   1126.83
	Linear fluid (dielectric constant: 7.2) occupying 0.731127 of unit cell:	Completed after 3 iterations at t[s]:   1129.84
	FillingsUpdate:  mu: -0.101629746  nElectrons: 1146.000000
	SubspaceRotationAdjust: set factor to 0.239
ElecMinimize: Iter:  12  F: -7081.837627639732091  |grad|_K:  1.724e-06  alpha:  2.191e-01  linmin:  4.129e-05  t[s]:   1134.43
	Linear fluid (dielectric constant: 7.2) occupying 0.730985 of unit cell:	Completed after 5 iterations at t[s]:   1138.35
	Linear fluid (dielectric constant: 7.2) occupying 0.731000 of unit cell:	Completed after 1 iterations at t[s]:   1146.02
	FillingsUpdate:  mu: -0.102029255  nElectrons: 1146.000000
	SubspaceRotationAdjust: set factor to 0.248
ElecMinimize: Iter:  13  F: -7081.837702412054568  |grad|_K:  1.409e-06  alpha:  1.973e-01  linmin:  3.091e-05  t[s]:   1150.54
	Linear fluid (dielectric constant: 7.2) occupying 0.730918 of unit cell:	Completed after 5 iterations at t[s]:   1154.44
	Linear fluid (dielectric constant: 7.2) occupying 0.730891 of unit cell:	Completed after 3 iterations at t[s]:   1157.46
	FillingsUpdate:  mu: -0.102263398  nElectrons: 1146.000000
	SubspaceRotationAdjust: set factor to 0.213
ElecMinimize: Iter:  14  F: -7081.837767530090787  |grad|_K:  1.340e-06  alpha:  2.582e-01  linmin:  3.295e-05  t[s]:   1161.98
	Linear fluid (dielectric constant: 7.2) occupying 0.730800 of unit cell:	Completed after 4 iterations at t[s]:   1165.86
	Linear fluid (dielectric constant: 7.2) occupying 0.730823 of unit cell:	Completed after 2 iterations at t[s]:   1168.83
	FillingsUpdate:  mu: -0.102257869  nElectrons: 1146.000000
	SubspaceRotationAdjust: set factor to 0.233
ElecMinimize: Iter:  15  F: -7081.837812761667010  |grad|_K:  1.057e-06  alpha:  1.970e-01  linmin:  1.806e-05  t[s]:   1173.35
	Linear fluid (dielectric constant: 7.2) occupying 0.730772 of unit cell:	Completed after 4 iterations at t[s]:   1177.24
	Linear fluid (dielectric constant: 7.2) occupying 0.730766 of unit cell:	Completed after 1 iterations at t[s]:   1180.22
	FillingsUpdate:  mu: -0.102204254  nElectrons: 1146.000000
	SubspaceRotationAdjust: set factor to 0.208
ElecMinimize: Iter:  16  F: -7081.837844442503410  |grad|_K:  9.080e-07  alpha:  2.195e-01  linmin:  2.429e-05  t[s]:   1184.74
	Linear fluid (dielectric constant: 7.2) occupying 0.730704 of unit cell:	Completed after 4 iterations at t[s]:   1188.62
	Linear fluid (dielectric constant: 7.2) occupying 0.730711 of unit cell:	Completed after 1 iterations at t[s]:   1191.65
	FillingsUpdate:  mu: -0.102269966  nElectrons: 1146.000000
	SubspaceRotationAdjust: set factor to 0.21
ElecMinimize: Iter:  17  F: -7081.837865122300173  |grad|_K:  7.174e-07  alpha:  1.952e-01  linmin:  1.608e-05  t[s]:   1196.15
	Linear fluid (dielectric constant: 7.2) occupying 0.730671 of unit cell:	Completed after 3 iterations at t[s]:   1200.02
	Linear fluid (dielectric constant: 7.2) occupying 0.730655 of unit cell:	Completed after 2 iterations at t[s]:   1202.99
	FillingsUpdate:  mu: -0.102386942  nElectrons: 1146.000000
	SubspaceRotationAdjust: set factor to 0.222
ElecMinimize: Iter:  18  F: -7081.837882651724613  |grad|_K:  6.482e-07  alpha:  2.700e-01  linmin:  2.350e-05  t[s]:   1207.52
	Linear fluid (dielectric constant: 7.2) occupying 0.730624 of unit cell:	Completed after 4 iterations at t[s]:   1211.39
	Linear fluid (dielectric constant: 7.2) occupying 0.730631 of unit cell:	Completed after 1 iterations at t[s]:   1214.38
	FillingsUpdate:  mu: -0.102319425  nElectrons: 1146.000000
	SubspaceRotationAdjust: set factor to 0.216
ElecMinimize: Iter:  19  F: -7081.837894017899089  |grad|_K:  5.239e-07  alpha:  2.138e-01  linmin:  7.606e-06  t[s]:   1218.89
	Linear fluid (dielectric constant: 7.2) occupying 0.730624 of unit cell:	Completed after 2 iterations at t[s]:   1222.77
	Linear fluid (dielectric constant: 7.2) occupying 0.730623 of unit cell:	Completed after 0 iterations at t[s]:   1225.72
	FillingsUpdate:  mu: -0.102297132  nElectrons: 1146.000000
	SubspaceRotationAdjust: set factor to 0.241
ElecMinimize: Iter:  20  F: -7081.837902139567632  |grad|_K:  4.831e-07  alpha:  2.260e-01  linmin:  2.936e-06  t[s]:   1230.23
	Linear fluid (dielectric constant: 7.2) occupying 0.730613 of unit cell:	Completed after 3 iterations at t[s]:   1234.09
	Linear fluid (dielectric constant: 7.2) occupying 0.730614 of unit cell:	Completed after 1 iterations at t[s]:   1237.05
	FillingsUpdate:  mu: -0.102389231  nElectrons: 1146.000000
	SubspaceRotationAdjust: set factor to 0.216
ElecMinimize: Iter:  21  F: -7081.837908631509890  |grad|_K:  3.986e-07  alpha:  2.101e-01  linmin: -2.540e-06  t[s]:   1241.55
	Linear fluid (dielectric constant: 7.2) occupying 0.730604 of unit cell:	Completed after 2 iterations at t[s]:   1247.46
	Linear fluid (dielectric constant: 7.2) occupying 0.730602 of unit cell:	Completed after 1 iterations at t[s]:   1252.76
	FillingsUpdate:  mu: -0.102404010  nElectrons: 1146.000000
	SubspaceRotationAdjust: set factor to 0.268
ElecMinimize: Iter:  22  F: -7081.837913936791665  |grad|_K:  3.458e-07  alpha:  2.469e-01  linmin: -9.445e-06  t[s]:   1257.21
	Linear fluid (dielectric constant: 7.2) occupying 0.730598 of unit cell:	Completed after 2 iterations at t[s]:   1264.18
	Linear fluid (dielectric constant: 7.2) occupying 0.730598 of unit cell:	Completed after 0 iterations at t[s]:   1267.14
	FillingsUpdate:  mu: -0.102328632  nElectrons: 1146.000000
	SubspaceRotationAdjust: set factor to 0.266
ElecMinimize: Iter:  23  F: -7081.837917764994017  |grad|_K:  3.025e-07  alpha:  2.313e-01  linmin: -1.666e-05  t[s]:   1271.62
	Linear fluid (dielectric constant: 7.2) occupying 0.730606 of unit cell:	Completed after 2 iterations at t[s]:   1275.48
	Linear fluid (dielectric constant: 7.2) occupying 0.730605 of unit cell:	Completed after 0 iterations at t[s]:   1278.43
	FillingsUpdate:  mu: -0.102320359  nElectrons: 1146.000000
	SubspaceRotationAdjust: set factor to 0.272
ElecMinimize: Iter:  24  F: -7081.837920318918805  |grad|_K:  2.680e-07  alpha:  1.978e-01  linmin: -1.882e-05  t[s]:   1282.92
	Linear fluid (dielectric constant: 7.2) occupying 0.730612 of unit cell:	Completed after 2 iterations at t[s]:   1286.75
	Linear fluid (dielectric constant: 7.2) occupying 0.730611 of unit cell:	Completed after 0 iterations at t[s]:   1289.70
	FillingsUpdate:  mu: -0.102347407  nElectrons: 1146.000000
	SubspaceRotationAdjust: set factor to 0.276
ElecMinimize: Iter:  25  F: -7081.837922057493415  |grad|_K:  2.156e-07  alpha:  1.678e-01  linmin: -2.220e-05  t[s]:   1294.21
	Linear fluid (dielectric constant: 7.2) occupying 0.730614 of unit cell:	Completed after 2 iterations at t[s]:   1298.05
	Linear fluid (dielectric constant: 7.2) occupying 0.730615 of unit cell:	Completed after 0 iterations at t[s]:   1301.00
	FillingsUpdate:  mu: -0.102363626  nElectrons: 1146.000000
	SubspaceRotationAdjust: set factor to 0.287
ElecMinimize: Iter:  26  F: -7081.837923617610613  |grad|_K:  1.786e-07  alpha:  2.110e-01  linmin: -3.632e-05  t[s]:   1305.51
	Linear fluid (dielectric constant: 7.2) occupying 0.730618 of unit cell:	Completed after 1 iterations at t[s]:   1309.35
	Linear fluid (dielectric constant: 7.2) occupying 0.730617 of unit cell:	Completed after 0 iterations at t[s]:   1312.29
	FillingsUpdate:  mu: -0.102345543  nElectrons: 1146.000000
	SubspaceRotationAdjust: set factor to 0.322
ElecMinimize: Iter:  27  F: -7081.837924613009818  |grad|_K:  1.345e-07  alpha:  1.891e-01  linmin: -2.465e-05  t[s]:   1316.80
	Linear fluid (dielectric constant: 7.2) occupying 0.730622 of unit cell:	Completed after 1 iterations at t[s]:   1320.63
	Linear fluid (dielectric constant: 7.2) occupying 0.730623 of unit cell:	Completed after 0 iterations at t[s]:   1323.57
	FillingsUpdate:  mu: -0.102337153  nElectrons: 1146.000000
	SubspaceRotationAdjust: set factor to 0.336
ElecMinimize: Iter:  28  F: -7081.837925268328945  |grad|_K:  1.194e-07  alpha:  2.229e-01  linmin: -3.307e-05  t[s]:   1328.07
	Linear fluid (dielectric constant: 7.2) occupying 0.730631 of unit cell:	Completed after 1 iterations at t[s]:   1331.90
	Linear fluid (dielectric constant: 7.2) occupying 0.730629 of unit cell:	Completed after 0 iterations at t[s]:   1334.84
	FillingsUpdate:  mu: -0.102347223  nElectrons: 1146.000000
	SubspaceRotationAdjust: set factor to 0.309
ElecMinimize: Iter:  29  F: -7081.837925721324609  |grad|_K:  1.135e-07  alpha:  1.886e-01  linmin: -1.223e-05  t[s]:   1339.35
	Linear fluid (dielectric constant: 7.2) occupying 0.730635 of unit cell:	Completed after 1 iterations at t[s]:   1343.21
	Linear fluid (dielectric constant: 7.2) occupying 0.730633 of unit cell:	Completed after 0 iterations at t[s]:   1346.15
	FillingsUpdate:  mu: -0.102345212  nElectrons: 1146.000000
	SubspaceRotationAdjust: set factor to 0.249
ElecMinimize: Iter:  30  F: -7081.837925986318623  |grad|_K:  1.031e-07  alpha:  1.419e-01  linmin: -9.833e-06  t[s]:   1350.65
	Linear fluid (dielectric constant: 7.2) occupying 0.730635 of unit cell:	Completed after 1 iterations at t[s]:   1354.49
	Linear fluid (dielectric constant: 7.2) occupying 0.730635 of unit cell:	Completed after 0 iterations at t[s]:   1357.40
	FillingsUpdate:  mu: -0.102337766  nElectrons: 1146.000000
	SubspaceRotationAdjust: set factor to 0.201
ElecMinimize: Iter:  31  F: -7081.837926187772609  |grad|_K:  6.941e-08  alpha:  1.280e-01  linmin: -1.591e-05  t[s]:   1361.90
	Linear fluid (dielectric constant: 7.2) occupying 0.730635 of unit cell:	Completed after 0 iterations at t[s]:   1365.73
	Linear fluid (dielectric constant: 7.2) occupying 0.730635 of unit cell:	Completed after 0 iterations at t[s]:   1368.66
	FillingsUpdate:  mu: -0.102336873  nElectrons: 1146.000000
	SubspaceRotationAdjust: set factor to 0.216
ElecMinimize: Iter:  32  F: -7081.837926345187952  |grad|_K:  4.792e-08  alpha:  1.896e-01  linmin: -2.740e-05  t[s]:   1373.20
	Linear fluid (dielectric constant: 7.2) occupying 0.730635 of unit cell:	Completed after 1 iterations at t[s]:   1377.09
	Linear fluid (dielectric constant: 7.2) occupying 0.730636 of unit cell:	Completed after 0 iterations at t[s]:   1380.05
	FillingsUpdate:  mu: -0.102340385  nElectrons: 1146.000000
	SubspaceRotationAdjust: set factor to 0.261
ElecMinimize: Iter:  33  F: -7081.837926465681448  |grad|_K:  4.044e-08  alpha:  2.764e-01  linmin: -2.223e-05  t[s]:   1384.56
	Linear fluid (dielectric constant: 7.2) occupying 0.730637 of unit cell:	Completed after 1 iterations at t[s]:   1388.41
	Linear fluid (dielectric constant: 7.2) occupying 0.730636 of unit cell:	Completed after 0 iterations at t[s]:   1391.38
	FillingsUpdate:  mu: -0.102345301  nElectrons: 1146.000000
	SubspaceRotationAdjust: set factor to 0.232
ElecMinimize: Iter:  34  F: -7081.837926521954614  |grad|_K:  5.659e-08  alpha:  1.968e-01  linmin:  8.149e-06  t[s]:   1396.23
	Linear fluid (dielectric constant: 7.2) occupying 0.730637 of unit cell:	Completed after 1 iterations at t[s]:   1400.11
	Linear fluid (dielectric constant: 7.2) occupying 0.730637 of unit cell:	Completed after 0 iterations at t[s]:   1403.06
	FillingsUpdate:  mu: -0.102343604  nElectrons: 1146.000000
	SubspaceRotationAdjust: set factor to 0.281
ElecMinimize: Iter:  35  F: -7081.837926552091631  |grad|_K:  4.056e-08  alpha:  9.804e-02  linmin: -6.586e-07  t[s]:   1407.56
	Linear fluid (dielectric constant: 7.2) occupying 0.730637 of unit cell:	Completed after 0 iterations at t[s]:   1411.38
	Linear fluid (dielectric constant: 7.2) occupying 0.730636 of unit cell:	Completed after 0 iterations at t[s]:   1414.28
	FillingsUpdate:  mu: -0.102342268  nElectrons: 1146.000000
	SubspaceRotationAdjust: set factor to 0.336
ElecMinimize: Iter:  36  F: -7081.837926596144825  |grad|_K:  3.229e-08  alpha:  1.663e-01  linmin: -2.013e-05  t[s]:   1418.75
	Linear fluid (dielectric constant: 7.2) occupying 0.730635 of unit cell:	Completed after 1 iterations at t[s]:   1422.60
	Linear fluid (dielectric constant: 7.2) occupying 0.730636 of unit cell:	Completed after 0 iterations at t[s]:   1425.52
	FillingsUpdate:  mu: -0.102336123  nElectrons: 1146.000000
	SubspaceRotationAdjust: set factor to 0.324
ElecMinimize: Iter:  37  F: -7081.837926608537600  |grad|_K:  4.592e-08  alpha:  9.373e-02  linmin: -3.178e-06  t[s]:   1430.00
	Linear fluid (dielectric constant: 7.2) occupying 0.730634 of unit cell:	Completed after 0 iterations at t[s]:   1433.83
	Linear fluid (dielectric constant: 7.2) occupying 0.730635 of unit cell:	Completed after 0 iterations at t[s]:   1436.74
	FillingsUpdate:  mu: -0.102337513  nElectrons: 1146.000000
	SubspaceRotationAdjust: set factor to 0.456
ElecMinimize: Iter:  38  F: -7081.837926623321437  |grad|_K:  3.329e-08  alpha:  5.585e-02  linmin: -5.486e-06  t[s]:   1441.22
	Linear fluid (dielectric constant: 7.2) occupying 0.730635 of unit cell:	Completed after 0 iterations at t[s]:   1445.05
	Linear fluid (dielectric constant: 7.2) occupying 0.730634 of unit cell:	Completed after 0 iterations at t[s]:   1447.97
	FillingsUpdate:  mu: -0.102342148  nElectrons: 1146.000000
	SubspaceRotationAdjust: set factor to 0.547
ElecMinimize: Iter:  39  F: -7081.837926637987039  |grad|_K:  2.879e-08  alpha:  1.043e-01  linmin: -4.923e-06  t[s]:   1452.46
	Linear fluid (dielectric constant: 7.2) occupying 0.730635 of unit cell:	Completed after 0 iterations at t[s]:   1456.28
	Linear fluid (dielectric constant: 7.2) occupying 0.730635 of unit cell:	Completed after 0 iterations at t[s]:   1459.20
	FillingsUpdate:  mu: -0.102345520  nElectrons: 1146.000000
	SubspaceRotationAdjust: set factor to 0.646
ElecMinimize: Iter:  40  F: -7081.837926652292481  |grad|_K:  2.818e-08  alpha:  1.113e-01  linmin: -2.890e-06  t[s]:   1463.67
	Linear fluid (dielectric constant: 7.2) occupying 0.730636 of unit cell:	Completed after 0 iterations at t[s]:   1467.49
	Linear fluid (dielectric constant: 7.2) occupying 0.730636 of unit cell:	Completed after 0 iterations at t[s]:   1470.43
	FillingsUpdate:  mu: -0.102349333  nElectrons: 1146.000000
	SubspaceRotationAdjust: set factor to 0.697
ElecMinimize: Iter:  41  F: -7081.837926666447856  |grad|_K:  3.592e-08  alpha:  1.537e-01  linmin:  7.277e-06  t[s]:   1474.92
	Linear fluid (dielectric constant: 7.2) occupying 0.730637 of unit cell:	Completed after 1 iterations at t[s]:   1478.75
	Linear fluid (dielectric constant: 7.2) occupying 0.730636 of unit cell:	Completed after 0 iterations at t[s]:   1483.04
	FillingsUpdate:  mu: -0.102349550  nElectrons: 1146.000000
	SubspaceRotationAdjust: set factor to 0.744
ElecMinimize: Iter:  42  F: -7081.837926671289097  |grad|_K:  4.586e-08  alpha:  3.633e-02  linmin:  2.314e-06  t[s]:   1488.22
	Linear fluid (dielectric constant: 7.2) occupying 0.730636 of unit cell:	Completed after 0 iterations at t[s]:   1492.07
	Linear fluid (dielectric constant: 7.2) occupying 0.730636 of unit cell:	Completed after 0 iterations at t[s]:   1496.34
	FillingsUpdate:  mu: -0.102343840  nElectrons: 1146.000000
	SubspaceRotationAdjust: set factor to 0.666
ElecMinimize: Iter:  43  F: -7081.837926678250369  |grad|_K:  4.784e-08  alpha:  5.793e-02  linmin:  7.270e-06  t[s]:   1500.79
ElecMinimize: Converged (|Delta F|<1.000000e-08 for 2 iters).
Setting wave functions to eigenvectors of Hamiltonian
Single-point solvation energy estimate, DeltaF = -0.058716178918985

# Ionic positions in cartesian coordinates:
ion Ni  32.181130469222218  -0.000028463333331   0.611327655000000 0
ion Ni   5.363545148055554  -0.000028463333331   5.974853827499987 0
ion Ni  32.181130469222218  -5.363543250499998   5.974853827499987 0
ion Ni   5.363545148055554  -5.363543250499998   0.611327655000000 0
ion Ni  32.181130469222218 -10.727058037666666   0.611327655000000 0
ion Ni  32.181130469222218 -21.454087611999999   0.611327655000000 0
ion Ni   5.363545148055554 -21.454087611999999   5.974853827499987 0
ion Ni   5.363545148055554 -10.727058037666666   5.974853827499987 0
ion Ni  32.181130469222218 -16.090572824833334   5.974853827499987 0
ion Ni  32.181130469222218 -26.817602399166635   5.974853827499987 0
ion Ni   5.363545148055554 -26.817602399166635   0.611327655000000 0
ion Ni   5.363545148055554 -16.090572824833334   0.611327655000000 0
ion Ni  10.727071320555536  -0.000028463333331   0.611327655000000 0
ion Ni  21.454100894888885  -0.000028463333331   0.611327655000000 0
ion Ni  21.454100894888885  -5.363543250499998   5.974853827499987 0
ion Ni  10.727071320555536  -5.363543250499998   5.974853827499987 0
ion Ni  16.090574722388887  -5.363543250499998   0.611327655000000 0
ion Ni  26.817604296722191  -5.363543250499998   0.611327655000000 0
ion Ni  26.817604296722191  -0.000028463333331   5.974853827499987 0
ion Ni  16.090574722388887  -0.000028463333331   5.974853827499987 0
ion Ni  10.727071320555536 -10.727058037666666   0.611327655000000 0
ion Ni  21.454100894888885 -21.454087611999999   0.611327655000000 0
ion Ni  26.817604296722191 -21.454087611999999   5.974853827499987 0
ion Ni  16.090574722388887 -10.727058037666666   5.974853827499987 0
ion Ni  21.454100894888885 -16.090572824833334   5.974853827499987 0
ion Ni  10.727071320555536 -26.817602399166635   5.974853827499987 0
ion Ni  16.090574722388887 -26.817602399166635   0.611327655000000 0
ion Ni  26.817604296722191 -16.090572824833334   0.611327655000000 0
ion Ni  10.727071320555536 -21.454087611999999   0.611327655000000 0
ion Ni  21.454100894888885 -10.727058037666666   0.611327655000000 0
ion Ni  26.817604296722191 -10.727058037666666   5.974853827499987 0
ion Ni  16.090574722388887 -21.454087611999999   5.974853827499987 0
ion Ni  21.454100894888885 -26.817602399166635   5.974853827499987 0
ion Ni  10.727071320555536 -16.090572824833334   5.974853827499987 0
ion Ni  16.090574722388887 -16.090572824833334   0.611327655000000 0
ion Ni  26.817604296722191 -26.817602399166635   0.611327655000000 0
ion S   4.232269668888877  -4.232271970733331   7.106125994099986 0
ion S  27.948891161222189 -27.948885064266637   4.843581660899996 0
ion S   1.131317225388885 -27.948885064266637   1.742599821599998 0
ion S   9.595784456055537  -4.232271970733331  10.207107833399981 0
ion S  27.948891161222189  -9.595786757899997  10.207107833399981 0
ion S   4.232269668888877  -1.131311128433331   1.742599821599998 0
ion S   9.595784456055537  -1.131311128433331   4.843581660899996 0
ion S   1.131317225388885  -9.595786757899997   7.106125994099986 0
ion S   4.232269668888877 -14.959301545066650   7.106125994099986 0
ion S  27.948891161222189 -17.221855489933301   4.843581660899996 0
ion S   1.131317225388885 -17.221855489933301   1.742599821599998 0
ion S   9.595784456055537 -14.959301545066650  10.207107833399981 0
ion S  27.948891161222189 -20.322816332233330  10.207107833399981 0
ion S   4.232269668888877 -22.585370277100001   1.742599821599998 0
ion S   9.595784456055537 -22.585370277100001   4.843581660899996 0
ion S   1.131317225388885 -20.322816332233330   7.106125994099986 0
ion S  14.959299243222205  -4.232271970733330   7.106125994099986 0
ion S  17.221861586888888 -27.948885064266637   4.843581660899996 0
ion S  17.221861586888888  -9.595786757899997  10.207107833399981 0
ion S  14.959299243222205  -1.131311128433331   1.742599821599998 0
ion S  20.322814030388887  -1.131311128433331   4.843581660899996 0
ion S  22.585376374055553  -9.595786757899997   7.106125994099986 0
ion S  22.585376374055553 -27.948885064266637   1.742599821599998 0
ion S  20.322814030388887  -4.232271970733330  10.207107833399981 0
ion S   4.232269668888877 -25.686331119399970   7.106125994099986 0
ion S  27.948891161222189  -6.494825915599990   4.843581660899996 0
ion S   1.131317225388885  -6.494825915599990   1.742599821599998 0
ion S   9.595784456055537 -25.686331119399970  10.207107833399981 0
ion S  27.948891161222189 -31.049845906566667  10.207107833399981 0
ion S   4.232269668888877 -11.858340702766650   1.742599821599998 0
ion S   9.595784456055537 -11.858340702766650   4.843581660899996 0
ion S   1.131317225388885 -31.049845906566667   7.106125994099986 0
ion S  25.686328817555523  -4.232271970733330   7.106125994099986 0
ion S   6.494832012555547 -27.948885064266637   4.843581660899996 0
ion S   6.494832012555547  -9.595786757899997  10.207107833399981 0
ion S  25.686328817555523  -1.131311128433331   1.742599821599998 0
ion S  31.049843604722220  -1.131311128433331   4.843581660899996 0
ion S  11.858346799722206  -9.595786757899997   7.106125994099986 0
ion S  11.858346799722206 -27.948885064266637   1.742599821599998 0
ion S  31.049843604722220  -4.232271970733330  10.207107833399981 0
ion S  14.959299243222205 -14.959301545066650   7.106125994099986 0
ion S  17.221861586888888 -17.221855489933301   4.843581660899996 0
ion S  22.585376374055553 -17.221855489933301   1.742599821599998 0
ion S  20.322814030388887 -14.959301545066650  10.207107833399981 0
ion S  17.221861586888888 -20.322816332233330  10.207107833399981 0
ion S  14.959299243222205 -22.585370277100001   1.742599821599998 0
ion S  20.322814030388887 -22.585370277100001   4.843581660899996 0
ion S  22.585376374055553 -20.322816332233330   7.106125994099986 0
ion S  14.959299243222205 -25.686331119399970   7.106125994099986 0
ion S  17.221861586888888  -6.494825915599990   4.843581660899996 0
ion S  22.585376374055553  -6.494825915599990   1.742599821599998 0
ion S  20.322814030388887 -25.686331119399970  10.207107833399981 0
ion S  17.221861586888888 -31.049845906566667  10.207107833399981 0
ion S  14.959299243222205 -11.858340702766650   1.742599821599998 0
ion S  20.322814030388887 -11.858340702766650   4.843581660899996 0
ion S  22.585376374055553 -31.049845906566667   7.106125994099986 0
ion S  25.686328817555523 -14.959301545066650   7.106125994099986 0
ion S   6.494832012555547 -17.221855489933301   4.843581660899996 0
ion S  11.858346799722206 -17.221855489933301   1.742599821599998 0
ion S  31.049843604722220 -14.959301545066650  10.207107833399981 0
ion S   6.494832012555547 -20.322816332233330  10.207107833399981 0
ion S  25.686328817555523 -22.585370277100001   1.742599821599998 0
ion S  31.049843604722220 -22.585370277100001   4.843581660899996 0
ion S  11.858346799722206 -20.322816332233330   7.106125994099986 0
ion S  25.686328817555523 -25.686331119399970   7.106125994099986 0
ion S   6.494832012555547  -6.494825915599990   4.843581660899996 0
ion S  11.858346799722206  -6.494825915599990   1.742599821599998 0
ion S  31.049843604722220 -25.686331119399970  10.207107833399981 0
ion S   6.494832012555547 -31.049845906566667  10.207107833399981 0
ion S  25.686328817555523 -11.858340702766650   1.742599821599998 0
ion S  31.049843604722220 -11.858340702766650   4.843581660899996 0
ion S  11.858346799722206 -31.049845906566667   7.106125994099986 0
ion S  12.642319711647122 -25.793307367430124  12.529104720878010 1
ion S  12.949161071604479 -22.501860378998561  14.577618082938031 1
ion S  14.175315797930734 -19.431621242138309  12.221965471519050 1
ion S   7.350530056143484 -12.949947666415195  15.382043606681107 1
ion S   9.079385134805818 -11.638497314833417  12.305546182557617 1
ion S  14.317847675582973  -8.144240581830255  11.916515796245223 1
ion S  19.938608889993990 -29.081125495075227  11.890917887832625 1
ion S  23.286641178187939 -35.049094680762607  11.885063797839654 1
ion Na  26.240017054343785 -25.200739029512498  12.259180078467459 1
ion Na   3.919583914767282 -16.080523117976600  12.434641665509405 1

# Forces in Cartesian coordinates:
force Ni   0.023523656093879   0.011535998042368   0.042288261546638 0
force Ni  -0.002125005075890   0.000054774192436   0.007452238497333 0
force Ni   0.001363418559656   0.000211364907422   0.006848768393440 0
force Ni  -0.023591316692850   0.011277528792138   0.041866938301472 0
force Ni   0.023811165313688   0.011570069469966   0.042219577064690 0
force Ni   0.023534956594902   0.011458927911129   0.042349547206868 0
force Ni  -0.003049455543265  -0.000884674319749   0.006175241317065 0
force Ni  -0.000728769967676  -0.005240789999355  -0.001276342268954 0
force Ni   0.001529976620528  -0.000304352839734   0.005974234528552 0
force Ni   0.000392284888469  -0.000499425280590   0.006481989390683 0
force Ni  -0.023216904103046   0.011674211116740   0.041980438076566 0
force Ni  -0.023636070672481   0.012279919542728   0.042255582268480 0
force Ni   0.023883813193546   0.011699034814239   0.041940683550499 0
force Ni   0.023711359157767   0.011441019634261   0.041272825877133 0
force Ni   0.003838489353287  -0.002861075775722  -0.002021969361581 0
force Ni   0.000055741339056   0.000004215236034   0.007965239478951 0
force Ni  -0.023758742143944   0.011751924068692   0.040420293747230 0
force Ni  -0.023605989146248   0.011484970744641   0.041892238994328 0
force Ni  -0.001706616277626   0.000003731541103   0.006579394296861 0
force Ni   0.002180379481210  -0.000996314167957  -0.008202214106611 0
force Ni   0.023789614605592   0.011660425534563   0.041868965505358 0
force Ni   0.023566433668713   0.011561782668018   0.041226731850218 0
force Ni  -0.000725101712765   0.000177369686854   0.006607859507439 0
force Ni  -0.004144318662112  -0.003670484456012  -0.001349144130716 0
force Ni   0.001723084887922  -0.000290642831496   0.007602016534007 0
force Ni   0.007831838472367  -0.001200901166883  -0.000184407763266 0
force Ni  -0.023516734940186   0.011608914506398   0.041272472290870 0
force Ni  -0.023304978419744   0.011459629612133   0.042202980233021 0
force Ni   0.023823870248299   0.011799278126278   0.041400680968938 0
force Ni   0.023437029710761   0.011970027087304   0.041948478943779 0
force Ni  -0.001033810032869   0.000365046680167   0.007809413586949 0
force Ni  -0.005741134323327  -0.002669586571756  -0.001952760030235 0
force Ni   0.005269832785257  -0.002738675605162  -0.004362627315300 0
force Ni   0.005722355724144   0.002863346793613  -0.005121475134766 0
force Ni  -0.023716975274881   0.011435255000167   0.041610620372806 0
force Ni  -0.023700519834783   0.011854110029460   0.042714906485878 0
force S  -0.003935935101451   0.003475560178348   0.003322746479839 0
force S   0.005154707468422  -0.002401081401291  -0.011134155845279 0
force S  -0.002646637671558  -0.007019327862726  -0.019066390800328 0
force S   0.002358210853624  -0.002930630393692  -0.019221298558329 0
force S   0.003040344771825  -0.006698708798254  -0.020149885492407 0
force S   0.002628030422512  -0.006587049209274  -0.019471160292653 0
force S  -0.002537055811004  -0.000884615056590  -0.009969927071877 0
force S   0.002845759517358   0.004420406964642   0.001735814838499 0
force S  -0.008886854086277   0.005937732786839  -0.002770873679874 0
force S   0.003115974406157  -0.000049034543833  -0.011623590591353 0
force S  -0.002772197404560  -0.006712589093515  -0.019435517268427 0
force S   0.003697123929716  -0.024314478957012  -0.000135132193166 0
force S   0.001135238613302  -0.009021970740245  -0.018567430515404 0
force S   0.002695340272417  -0.006672194129725  -0.019242764033368 0
force S  -0.004072438562612   0.000009501296025  -0.012342481064169 0
force S   0.005365436543762   0.003880601577619   0.002431286506794 0
force S  -0.004708603667946   0.006835378713834  -0.001313243006258 0
force S   0.002549821801840   0.001152043534360  -0.011276176307445 0
force S   0.002520951108926  -0.008318108907952  -0.007306958215994 0
force S   0.000996123475070  -0.007778382458799  -0.020851588720697 0
force S  -0.002205565870509   0.000084009605195  -0.008580354594650 0
force S   0.004844199268692   0.003763625197582   0.002586548111954 0
force S  -0.002304945059965  -0.007334681321880  -0.020213345094671 0
force S   0.002340067892315  -0.004233940126031  -0.006627316070895 0
force S  -0.003624253790054   0.002884274718355   0.001930647290374 0
force S   0.004315220799959  -0.001684226599497  -0.013815741593231 0
force S  -0.002337018536373  -0.006712971607528  -0.019481840569311 0
force S  -0.005447776398930  -0.008637406057953  -0.004371362439892 0
force S  -0.000048941758762  -0.008205306260703  -0.017569367478517 0
force S   0.001444704944157  -0.007403574866319  -0.020739126247239 0
force S  -0.003737519076232  -0.001665776697747  -0.016120464888933 0
force S   0.004703351079247   0.003722692323032   0.003253290179238 0
force S  -0.002298292706301   0.003203214715111   0.002865836633783 0
force S   0.003461932501329  -0.000290800051254  -0.009912164968373 0
force S  -0.011201211202960   0.011566881435784  -0.006174588058880 0
force S   0.002592868429172  -0.006749696906545  -0.019117743492209 0
force S  -0.002967827543485  -0.000706856504243  -0.011622293217252 0
force S   0.004635697617867   0.004007191469026  -0.000884169658075 0
force S  -0.002221145709123  -0.007408264108453  -0.019929357287262 0
force S  -0.003251198752071  -0.009878095416092  -0.020785879767999 0
force S  -0.002625136037809   0.005092070441734   0.000002953040295 0
force S   0.003168282883159   0.000103835970009  -0.011006416321045 0
force S  -0.002671066992405  -0.006608709436312  -0.019489393474015 0
force S   0.004119433758590  -0.005561145939006  -0.022177740744625 0
force S   0.002903981638010  -0.002555617275088  -0.002441068891679 0
force S   0.001834747743027  -0.007104165997693  -0.019958551579257 0
force S  -0.004052984640771  -0.000404185772619  -0.009593433108274 0
force S   0.003836700186839   0.003359694268751   0.002153151469024 0
force S  -0.000982060460902   0.002737979362921  -0.005571607390342 0
force S   0.004142529743921   0.000587975948924  -0.006327153847693 0
force S  -0.001371652999843  -0.007511790646338  -0.020717820037648 0
force S   0.010542370651515  -0.001052029492067  -0.006213654175479 0
force S  -0.020429288402704  -0.015641177520560   0.007746462903049 0
force S   0.001101716692802  -0.007099054526219  -0.021211328391659 0
force S  -0.004860725600130  -0.000477989129862  -0.009428956056275 0
force S   0.009455829617157   0.003180812322253  -0.008664405822827 0
force S  -0.005167797810700   0.003605925704235   0.002880429040802 0
force S   0.005703140072725  -0.003145559919382  -0.009483737482018 0
force S  -0.001574890469604  -0.008049134955608  -0.020866855490065 0
force S   0.000530971175382  -0.006885783444608  -0.017845021407862 0
force S  -0.005052775599637  -0.005265238147576  -0.021062481903845 0
force S   0.002507981744982  -0.006895301741879  -0.019608706291103 0
force S  -0.003373333034391  -0.000565777518632  -0.012171804704643 0
force S  -0.000221809987503   0.003749518226152  -0.001232481156109 0
force S  -0.007934633734108   0.005371039054799  -0.007640050885377 0
force S   0.002579175319421  -0.000923868029345  -0.011174271176032 0
[...]
	FillingsUpdate:  mu: -0.100316190  nElectrons: 1146.000000
	SubspaceRotationAdjust: set factor to 0.226
ElecMinimize: Iter:   8  F: -7081.840648199136922  |grad|_K:  2.039e-08  alpha:  2.185e-01  linmin: -1.888e-03  t[s]:  13782.40
	Linear fluid (dielectric constant: 7.2) occupying 0.730192 of unit cell:	Completed after 1 iterations at t[s]:  13786.27
	Linear fluid (dielectric constant: 7.2) occupying 0.730192 of unit cell:	Completed after 0 iterations at t[s]:  13789.32
	FillingsUpdate:  mu: -0.100311607  nElectrons: 1146.000000
	SubspaceRotationAdjust: set factor to 0.204
ElecMinimize: Iter:   9  F: -7081.840648207256891  |grad|_K:  2.865e-08  alpha:  1.221e-01  linmin:  1.940e-03  t[s]:  13793.78
	Linear fluid (dielectric constant: 7.2) occupying 0.730192 of unit cell:	Completed after 0 iterations at t[s]:  13797.65
	Linear fluid (dielectric constant: 7.2) occupying 0.730192 of unit cell:	Completed after 0 iterations at t[s]:  13800.69
	FillingsUpdate:  mu: -0.100308695  nElectrons: 1146.000000
	SubspaceRotationAdjust: set factor to 0.245
ElecMinimize: Iter:  10  F: -7081.840648213583336  |grad|_K:  2.115e-08  alpha:  9.055e-02  linmin:  2.175e-04  t[s]:  13805.15
ElecMinimize: Converged (|Delta F|<1.000000e-08 for 2 iters).
Setting wave functions to eigenvectors of Hamiltonian

# Ionic positions in cartesian coordinates:
ion Ni  32.181130469222218  -0.000028463333331   0.611327655000000 0
ion Ni   5.363545148055554  -0.000028463333331   5.974853827499987 0
ion Ni  32.181130469222218  -5.363543250499998   5.974853827499987 0
ion Ni   5.363545148055554  -5.363543250499998   0.611327655000000 0
ion Ni  32.181130469222218 -10.727058037666666   0.611327655000000 0
ion Ni  32.181130469222218 -21.454087611999999   0.611327655000000 0
ion Ni   5.363545148055554 -21.454087611999999   5.974853827499987 0
ion Ni   5.363545148055554 -10.727058037666666   5.974853827499987 0
ion Ni  32.181130469222218 -16.090572824833334   5.974853827499987 0
ion Ni  32.181130469222218 -26.817602399166635   5.974853827499987 0
ion Ni   5.363545148055554 -26.817602399166635   0.611327655000000 0
ion Ni   5.363545148055554 -16.090572824833334   0.611327655000000 0
ion Ni  10.727071320555536  -0.000028463333331   0.611327655000000 0
ion Ni  21.454100894888885  -0.000028463333331   0.611327655000000 0
ion Ni  21.454100894888885  -5.363543250499998   5.974853827499987 0
ion Ni  10.727071320555536  -5.363543250499998   5.974853827499987 0
ion Ni  16.090574722388887  -5.363543250499998   0.611327655000000 0
ion Ni  26.817604296722191  -5.363543250499998   0.611327655000000 0
ion Ni  26.817604296722191  -0.000028463333331   5.974853827499987 0
ion Ni  16.090574722388887  -0.000028463333331   5.974853827499987 0
ion Ni  10.727071320555536 -10.727058037666666   0.611327655000000 0
ion Ni  21.454100894888885 -21.454087611999999   0.611327655000000 0
ion Ni  26.817604296722191 -21.454087611999999   5.974853827499987 0
ion Ni  16.090574722388887 -10.727058037666666   5.974853827499987 0
ion Ni  21.454100894888885 -16.090572824833334   5.974853827499987 0
ion Ni  10.727071320555536 -26.817602399166635   5.974853827499987 0
ion Ni  16.090574722388887 -26.817602399166635   0.611327655000000 0
ion Ni  26.817604296722191 -16.090572824833334   0.611327655000000 0
ion Ni  10.727071320555536 -21.454087611999999   0.611327655000000 0
ion Ni  21.454100894888885 -10.727058037666666   0.611327655000000 0
ion Ni  26.817604296722191 -10.727058037666666   5.974853827499987 0
ion Ni  16.090574722388887 -21.454087611999999   5.974853827499987 0
ion Ni  21.454100894888885 -26.817602399166635   5.974853827499987 0
ion Ni  10.727071320555536 -16.090572824833334   5.974853827499987 0
ion Ni  16.090574722388887 -16.090572824833334   0.611327655000000 0
ion Ni  26.817604296722191 -26.817602399166635   0.611327655000000 0
ion S   4.232269668888877  -4.232271970733331   7.106125994099986 0
ion S  27.948891161222189 -27.948885064266637   4.843581660899996 0
ion S   1.131317225388885 -27.948885064266637   1.742599821599998 0
ion S   9.595784456055537  -4.232271970733331  10.207107833399981 0
ion S  27.948891161222189  -9.595786757899997  10.207107833399981 0
ion S   4.232269668888877  -1.131311128433331   1.742599821599998 0
ion S   9.595784456055537  -1.131311128433331   4.843581660899996 0
ion S   1.131317225388885  -9.595786757899997   7.106125994099986 0
ion S   4.232269668888877 -14.959301545066650   7.106125994099986 0
ion S  27.948891161222189 -17.221855489933301   4.843581660899996 0
ion S   1.131317225388885 -17.221855489933301   1.742599821599998 0
ion S   9.595784456055537 -14.959301545066650  10.207107833399981 0
ion S  27.948891161222189 -20.322816332233330  10.207107833399981 0
ion S   4.232269668888877 -22.585370277100001   1.742599821599998 0
ion S   9.595784456055537 -22.585370277100001   4.843581660899996 0
ion S   1.131317225388885 -20.322816332233330   7.106125994099986 0
ion S  14.959299243222205  -4.232271970733330   7.106125994099986 0
ion S  17.221861586888888 -27.948885064266637   4.843581660899996 0
ion S  17.221861586888888  -9.595786757899997  10.207107833399981 0
ion S  14.959299243222205  -1.131311128433331   1.742599821599998 0
ion S  20.322814030388887  -1.131311128433331   4.843581660899996 0
ion S  22.585376374055553  -9.595786757899997   7.106125994099986 0
ion S  22.585376374055553 -27.948885064266637   1.742599821599998 0
ion S  20.322814030388887  -4.232271970733330  10.207107833399981 0
ion S   4.232269668888877 -25.686331119399970   7.106125994099986 0
ion S  27.948891161222189  -6.494825915599990   4.843581660899996 0
ion S   1.131317225388885  -6.494825915599990   1.742599821599998 0
ion S   9.595784456055537 -25.686331119399970  10.207107833399981 0
ion S  27.948891161222189 -31.049845906566667  10.207107833399981 0
ion S   4.232269668888877 -11.858340702766650   1.742599821599998 0
ion S   9.595784456055537 -11.858340702766650   4.843581660899996 0
ion S   1.131317225388885 -31.049845906566667   7.106125994099986 0
ion S  25.686328817555523  -4.232271970733330   7.106125994099986 0
ion S   6.494832012555547 -27.948885064266637   4.843581660899996 0
ion S   6.494832012555547  -9.595786757899997  10.207107833399981 0
ion S  25.686328817555523  -1.131311128433331   1.742599821599998 0
ion S  31.049843604722220  -1.131311128433331   4.843581660899996 0
ion S  11.858346799722206  -9.595786757899997   7.106125994099986 0
ion S  11.858346799722206 -27.948885064266637   1.742599821599998 0
ion S  31.049843604722220  -4.232271970733330  10.207107833399981 0
ion S  14.959299243222205 -14.959301545066650   7.106125994099986 0
ion S  17.221861586888888 -17.221855489933301   4.843581660899996 0
ion S  22.585376374055553 -17.221855489933301   1.742599821599998 0
ion S  20.322814030388887 -14.959301545066650  10.207107833399981 0
ion S  17.221861586888888 -20.322816332233330  10.207107833399981 0
ion S  14.959299243222205 -22.585370277100001   1.742599821599998 0
ion S  20.322814030388887 -22.585370277100001   4.843581660899996 0
ion S  22.585376374055553 -20.322816332233330   7.106125994099986 0
ion S  14.959299243222205 -25.686331119399970   7.106125994099986 0
ion S  17.221861586888888  -6.494825915599990   4.843581660899996 0
ion S  22.585376374055553  -6.494825915599990   1.742599821599998 0
ion S  20.322814030388887 -25.686331119399970  10.207107833399981 0
ion S  17.221861586888888 -31.049845906566667  10.207107833399981 0
ion S  14.959299243222205 -11.858340702766650   1.742599821599998 0
ion S  20.322814030388887 -11.858340702766650   4.843581660899996 0
ion S  22.585376374055553 -31.049845906566667   7.106125994099986 0
ion S  25.686328817555523 -14.959301545066650   7.106125994099986 0
ion S   6.494832012555547 -17.221855489933301   4.843581660899996 0
ion S  11.858346799722206 -17.221855489933301   1.742599821599998 0
ion S  31.049843604722220 -14.959301545066650  10.207107833399981 0
ion S   6.494832012555547 -20.322816332233330  10.207107833399981 0
ion S  25.686328817555523 -22.585370277100001   1.742599821599998 0
ion S  31.049843604722220 -22.585370277100001   4.843581660899996 0
ion S  11.858346799722206 -20.322816332233330   7.106125994099986 0
ion S  25.686328817555523 -25.686331119399970   7.106125994099986 0
ion S   6.494832012555547  -6.494825915599990   4.843581660899996 0
ion S  11.858346799722206  -6.494825915599990   1.742599821599998 0
ion S  31.049843604722220 -25.686331119399970  10.207107833399981 0
ion S   6.494832012555547 -31.049845906566667  10.207107833399981 0
ion S  25.686328817555523 -11.858340702766650   1.742599821599998 0
ion S  31.049843604722220 -11.858340702766650   4.843581660899996 0
ion S  11.858346799722206 -31.049845906566667   7.106125994099986 0
ion S  12.644298663158004 -25.755613637806565  12.544281484579349 1
ion S  12.952497918337164 -22.453412247245353  14.580395779122259 1
ion S  14.180126970825260 -19.393683283618646  12.211354441895610 1
ion S   7.488537503913991 -12.781873931264949  15.393417785543855 1
ion S   9.166611037902465 -11.593790787974413  12.235076771088627 1
ion S  14.332464089873776  -8.082003180273052  11.908894816760890 1
ion S  19.919175026354150 -29.056745315582429  11.898026944410807 1
ion S  23.270358843383573 -34.995047405329181  11.879532931892834 1
ion Na  26.422301898041162 -24.946021024426390  12.947552064697062 1
ion Na   3.794566605531945 -16.226244850867864  12.797299035999725 1

# Forces in Cartesian coordinates:
force Ni   0.023543700029645   0.011562551885113   0.042413773266185 0
force Ni  -0.002161410963067   0.000006540026879   0.007420664554823 0
force Ni   0.001370914009207   0.000232222973649   0.006806609550324 0
force Ni  -0.023579594193225   0.011294016951714   0.041985306162232 0
force Ni   0.023817526949013   0.011575508250108   0.042314914682336 0
force Ni   0.023549930548298   0.011472853364462   0.042459664468561 0
force Ni  -0.003136087105159  -0.000831979509883   0.006195374954141 0
force Ni  -0.000473799939845  -0.005110186602559  -0.001235077709007 0
force Ni   0.001751278804653  -0.000297171095467   0.005933342509475 0
force Ni   0.000337329115670  -0.000496075598185   0.006406032280028 0
force Ni  -0.023256893613373   0.011700876484313   0.042083417108966 0
force Ni  -0.023588781565269   0.012224476407389   0.042241293249365 0
force Ni   0.023885674056711   0.011691717694923   0.042006246874649 0
force Ni   0.023731349791639   0.011444822806831   0.041342731631886 0
force Ni   0.004010274577801  -0.002763429291417  -0.001867493710094 0
force Ni   0.000036399003105   0.000008413189445   0.007918221106954 0
force Ni  -0.023766877453901   0.011744371981031   0.040463690557012 0
force Ni  -0.023615623436432   0.011524369563153   0.041969340618322 0
force Ni  -0.001642247854179   0.000031800561185   0.006719439342065 0
force Ni   0.002049026009088  -0.000963740965982  -0.008248077314513 0
force Ni   0.023793659069713   0.011669995393168   0.042006269520895 0
force Ni   0.023594284519635   0.011550093365940   0.041294689251847 0
force Ni  -0.000909249538747  -0.000321625208185   0.006454973742224 0
force Ni  -0.004262321493063  -0.003591934095488  -0.001164182215938 0
force Ni   0.001752153988284  -0.000363634785909   0.007570161582678 0
force Ni   0.007919929412098  -0.001134240316048  -0.000165298437007 0
force Ni  -0.023490657398367   0.011608013674362   0.041361274753428 0
force Ni  -0.023297749160106   0.011450117715043   0.042251646111018 0
force Ni   0.023801931654226   0.011815307336939   0.041489541217628 0
force Ni   0.023426888612901   0.011981821991548   0.042000540741115 0
force Ni  -0.001033504805875   0.000328369259393   0.007795473903160 0
force Ni  -0.005773584229113  -0.002670669486817  -0.001936064850561 0
force Ni   0.005610498243772  -0.002715597100890  -0.004390581134114 0
force Ni   0.005750571093620   0.002888832517875  -0.004846272931994 0
force Ni  -0.023720886706925   0.011455307056001   0.041687051475469 0
force Ni  -0.023670912110003   0.011777057767563   0.042699252219077 0
force S  -0.003959120772583   0.003448378017153   0.003283059877750 0
force S   0.004242812684530  -0.001753360020383  -0.011134078487024 0
force S  -0.002608806961022  -0.006993132557630  -0.019106236213141 0
force S   0.002284347290812  -0.003005520551776  -0.019139879147426 0
force S   0.002996306129467  -0.006693882795889  -0.020048116958575 0
force S   0.002658097980758  -0.006576757780184  -0.019526353674593 0
force S  -0.002522737107573  -0.000887748195518  -0.009945704431891 0
force S   0.002892125388596   0.004413751838110   0.001695512319756 0
force S  -0.008462451760587   0.005091798809660  -0.000164064907093 0
force S   0.003145089213443  -0.000039760062254  -0.011665948270152 0
force S  -0.002763567629301  -0.006726612119694  -0.019456652786954 0
force S   0.002926699912399  -0.024483280312234  -0.000077413542924 0
force S   0.001109860986052  -0.009333019711763  -0.018038103073137 0
force S   0.002708162750066  -0.006676671093479  -0.019302402838224 0
force S  -0.004017537403979   0.000057209766574  -0.012337851069812 0
force S   0.005398244167345   0.003950429450778   0.002393116615927 0
force S  -0.004681933274401   0.006906465968753  -0.001439383080231 0
force S   0.002543907611984   0.001137186600761  -0.011288671977881 0
force S   0.001251964171561  -0.007629483694232  -0.006454449159234 0
force S   0.001015704822322  -0.007796395915183  -0.020849138957650 0
force S  -0.002206377630879   0.000107676765651  -0.008426391192167 0
force S   0.004811964835790   0.003766490349216   0.002626960571076 0
force S  -0.002286236874584  -0.007350820020513  -0.020212037472850 0
force S   0.002801161621865  -0.003802899940909  -0.006225260912902 0
force S  -0.003655673475772   0.002909156049932   0.001937260698139 0
force S   0.004231713619643  -0.001611159170582  -0.013715572850064 0
force S  -0.002346719242118  -0.006729687876849  -0.019519043428339 0
force S  -0.004664978387913  -0.008368579377249  -0.003224424401320 0
force S   0.000397991276780  -0.008505449246721  -0.017804591665681 0
force S   0.001483218791794  -0.007406272116092  -0.020598325653067 0
force S  -0.003780477510902  -0.001668236885983  -0.016220943076847 0
force S   0.004691218968225   0.003758942131904   0.003222706479141 0
force S  -0.002296739104733   0.003210378312999   0.002843537229868 0
force S   0.003486083313327  -0.000331391409968  -0.009870114636004 0
force S  -0.011564249951368   0.011435874335718  -0.007052562556243 0
force S   0.002584081017653  -0.006755675163789  -0.019173211818913 0
force S  -0.003030551014439  -0.000739956727908  -0.011583205899418 0
force S   0.004736299669310   0.004175465765661  -0.001283921881935 0
force S  -0.002226736552725  -0.007436685533553  -0.020017811573040 0
force S  -0.003382242459861  -0.009539961377042  -0.020619067930617 0
force S  -0.002566893516783   0.005053964595933  -0.000060267431994 0
force S   0.003146580695643   0.000118188876208  -0.011043504748641 0
force S  -0.002682811841352  -0.006615856171385  -0.019583930970328 0
force S   0.004222402361544  -0.005633597924259  -0.022062190100740 0
force S   0.003234439102707  -0.002443790195045  -0.002687212490210 0
force S   0.001843193906619  -0.007101881574307  -0.020024427490429 0
force S  -0.003986860260098  -0.000448287720327  -0.009505426923979 0
force S   0.003881221160182   0.003266842335109   0.002156455734723 0
force S  -0.000913450982142   0.002695354304754  -0.005389990258625 0
force S   0.004104122617029   0.000630933252796  -0.006200499462535 0
force S  -0.001435229940062  -0.007513952311881  -0.020756126058403 0
force S   0.010483449106628   0.000438533356830  -0.006915415285149 0
force S  -0.020433920261357  -0.015765804015051   0.007598644502458 0
force S   0.001110012648490  -0.007110202212242  -0.021236227735115 0
force S  -0.004877784397324  -0.000463638257264  -0.009466368545149 0
force S   0.009332308504541   0.003349249912619  -0.008524302079470 0
force S  -0.005127924525139   0.003613733470700   0.002904736709341 0
force S   0.005230802420334  -0.002699814121094  -0.009486066377849 0
force S  -0.001622437122165  -0.007982996267255  -0.020822655308686 0
force S   0.000893091473017  -0.007276837323136  -0.017424005714002 0
force S  -0.005376937629218  -0.004368543239850  -0.020445827334909 0
force S   0.002487187258883  -0.006890676464221  -0.019559406509205 0
force S  -0.003382946033804  -0.000532549070811  -0.012124191577800 0
force S  -0.000231713279026   0.003718473203304  -0.001339160768761 0
force S  -0.006176256136214   0.005337746017175  -0.001252407913881 0
force S   0.002583214598285  -0.000896038613312  -0.011214201689268 0
force S  -0.002488333708776  -0.006786775978387  -0.019709211592283 0
force S  -0.000010847906109  -0.008274236014495  -0.017244771265970 0
force S   0.000089522792749  -0.013436904261527  -0.021899775399366 0
force S   0.002396487748673  -0.007026735025173  -0.019336616914420 0
force S  -0.002163822975553  -0.000951366160652  -0.010967051378960 0
force S   0.002637343984661   0.003175946662356   0.000604677685364 0
force S   0.000035847930335  -0.000032495292452  -0.000175816619596 1
force S  -0.000032895293270   0.000109044005577   0.000076588340276 1
force S  -0.000122052301362  -0.000082751046814   0.000036974789684 1
force S   0.000201904232836  -0.000122138272894   0.000074205032276 1
force S  -0.000073856962515  -0.000036376381631   0.000005375937334 1
force S  -0.000151588188302   0.000086206083068   0.000104910001666 1
force S   0.000046846679603  -0.000106793566233   0.000104080726493 1
force S  -0.000091542869923  -0.000059980778786  -0.000051916512648 1
force Na   0.000009086124598  -0.000088645343521  -0.000072610024746 1
force Na  -0.000073747170817  -0.000093300945966   0.000007818426084 1

# Energy components:
   A_diel =       -0.0876925472963028
   Eewald =    31419.1019099485456536
       EH =    37691.0422915204762830
     Eloc =   -77432.5887117003294406
      Enl =      919.7890855742034546
      Exc =     -987.8252662821173544
 Exc_core =      155.8560768973017332
       KE =     1153.8513124149972100
-------------------------------------
     Etot =    -7080.8609941742161027
       TS =        0.9796540393669075
-------------------------------------
        F =    -7081.8406482135833357


Dumping 'Na2S8@NiS2_S-glyme.fillings' ... done
Dumping 'Na2S8@NiS2_S-glyme.wfns' ... done
Dumping 'Na2S8@NiS2_S-glyme.fluidState' ... done
Dumping 'Na2S8@NiS2_S-glyme.ionpos' ... done
Dumping 'Na2S8@NiS2_S-glyme.eigenvals' ... done
IonicMinimize: Iter:  24  F: -7081.840648213583336  |grad|_K:  9.149e-05  alpha:  1.017e+01  linmin:  1.806e-04  t[s]:  13814.95
IonicMinimize: Converged (|grad|_K<1.000000e-04).

#--- Lowdin population analysis ---
# oxidation-state Ni +0.008 -0.445 -0.446 +0.010 +0.009 +0.009 -0.448 -0.456 -0.446 -0.438 +0.008 +0.009 +0.009 +0.008 -0.476 -0.446 +0.009 +0.007 -0.443 -0.456 +0.009 +0.010 -0.443 -0.467 -0.449 -0.456 +0.010 +0.010 +0.009 +0.009 -0.442 -0.469 -0.465 -0.448 +0.010 +0.009
# oxidation-state S +0.298 +0.444 +0.085 -0.098 -0.087 +0.083 +0.448 +0.295 +0.246 +0.444 +0.086 -0.081 -0.196 +0.086 +0.430 +0.303 +0.258 +0.427 +0.239 +0.085 +0.431 +0.275 +0.085 +0.235 +0.282 +0.437 +0.086 +0.107 -0.129 +0.087 +0.424 +0.311 +0.313 +0.439 -0.027 +0.085 +0.445 +0.265 +0.086 -0.088 +0.275 +0.435 +0.083 -0.164 +0.097 +0.084 +0.422 +0.254 +0.267 +0.424 +0.083 -0.007 -0.001 +0.082 +0.439 +0.262 +0.313 +0.436 +0.086 -0.184 -0.247 +0.084 +0.443 +0.281 +0.249 +0.435 +0.082 -0.193 -0.113 +0.085 +0.448 +0.281 +0.197 +0.041 +0.200 -0.341 +0.628 -0.004 +0.300 +0.003
# oxidation-state Na +0.825 +0.757


Dumping 'Na2S8@NiS2_S-glyme.fillings' ... done
Dumping 'Na2S8@NiS2_S-glyme.wfns' ... done
Dumping 'Na2S8@NiS2_S-glyme.fluidState' ... done
Dumping 'Na2S8@NiS2_S-glyme.ionpos' ... done
Dumping 'Na2S8@NiS2_S-glyme.eigenvals' ... done
End date and time: Wed Oct  9 21:01:43 2024  (Duration: 0-3:50:22.66)
Done!
