
*************** JDFTx 1.7.0  ***************

Start date and time: Fri Oct  4 10:32:18 2024
Executable jdftx_gpu with command-line: -i /home/akim2/JDFTx/Na2S4@NiS2_S/Na2S4@NiS2_S.in -o /home/akim2/JDFTx/Na2S4@NiS2_S/Na2S4@NiS2_S.out
Running on hosts (process indices):  exp-1-58 (0)
Divided in process groups (process indices):  0 (0)
gpuInit: Found compatible cuda device 0 'Tesla V100-SXM2-32GB'
gpuInit: Selected device 0
Resource initialization completed at t[s]:      0.37
Run totals: 1 processes, 1 threads, 1 GPUs


Input parsed successfully to the following command list (including defaults):

basis kpoint-dependent
coords-type Cartesian
core-overlap-check vector
coulomb-interaction Slab 001
coulomb-truncation-embed 0 0 7
davidson-band-ratio 1.1
dump End State
dump-name Na2S4@NiS2_S.$VAR
elec-cutoff 20 100
elec-eigen-algo Davidson
elec-ex-corr gga-PBE
elec-smearing Fermi 0.01
electronic-minimize  \
	dirUpdateScheme      FletcherReeves \
	linminMethod         DirUpdateRecommended \
	nIterations          100 \
	history              15 \
	knormThreshold       0 \
	energyDiffThreshold  1e-08 \
	nEnergyDiff          2 \
	alphaTstart          1 \
	alphaTmin            1e-10 \
	updateTestStepSize   yes \
	alphaTreduceFactor   0.1 \
	alphaTincreaseFactor 3 \
	nAlphaAdjustMax      3 \
	wolfeEnergy          0.0001 \
	wolfeGradient        0.9 \
	fdTest               no
exchange-regularization WignerSeitzTruncated
fluid None
fluid-ex-corr lda-TF lda-PZ
fluid-gummel-loop 10 1.000000e-05
fluid-minimize  \
	dirUpdateScheme      PolakRibiere \
	linminMethod         DirUpdateRecommended \
	nIterations          100 \
	history              15 \
	knormThreshold       0 \
	energyDiffThreshold  0 \
	nEnergyDiff          2 \
	alphaTstart          1 \
	alphaTmin            1e-10 \
	updateTestStepSize   yes \
	alphaTreduceFactor   0.1 \
	alphaTincreaseFactor 3 \
	nAlphaAdjustMax      3 \
	wolfeEnergy          0.0001 \
	wolfeGradient        0.9 \
	fdTest               no
fluid-solvent H2O 55.338 ScalarEOS \
	epsBulk 78.4 \
	pMol 0.92466 \
	epsInf 1.77 \
	Pvap 1.06736e-10 \
	sigmaBulk 4.62e-05 \
	Rvdw 2.61727 \
	Res 1.42 \
	tauNuc 343133 \
	poleEl 15 7 1
forces-output-coords Positions
initial-state Na2S4@NiS2_S.$VAR
ion Ni  32.181130469222218  -0.000028463333331   0.611327655000000 0
ion Ni   5.363545148055554  -0.000028463333331   5.974853827499990 0
ion Ni  32.181130469222218  -5.363543250499998   5.974853827499990 0
ion Ni   5.363545148055554  -5.363543250499998   0.611327655000000 0
ion Ni  32.181130469222218 -10.727058037666666   0.611327655000000 0
ion Ni  32.181130469222218 -21.454087611999999   0.611327655000000 0
ion Ni   5.363545148055554 -21.454087611999999   5.974853827499990 0
ion Ni   5.363545148055554 -10.727058037666666   5.974853827499990 0
ion Ni  32.181130469222218 -16.090572824833334   5.974853827499990 0
ion Ni  32.181130469222218 -26.817602399166638   5.974853827499990 0
ion Ni   5.363545148055554 -26.817602399166638   0.611327655000000 0
ion Ni   5.363545148055554 -16.090572824833334   0.611327655000000 0
ion Ni  10.727071320555538  -0.000028463333331   0.611327655000000 0
ion Ni  21.454100894888885  -0.000028463333331   0.611327655000000 0
ion Ni  21.454100894888885  -5.363543250499998   5.974853827499990 0
ion Ni  10.727071320555538  -5.363543250499998   5.974853827499990 0
ion Ni  16.090574722388887  -5.363543250499998   0.611327655000000 0
ion Ni  26.817604296722195  -5.363543250499998   0.611327655000000 0
ion Ni  26.817604296722195  -0.000028463333331   5.974853827499990 0
ion Ni  16.090574722388887  -0.000028463333331   5.974853827499990 0
ion Ni  10.727071320555538 -10.727058037666666   0.611327655000000 0
ion Ni  21.454100894888885 -21.454087611999999   0.611327655000000 0
ion Ni  26.817604296722195 -21.454087611999999   5.974853827499990 0
ion Ni  16.090574722388887 -10.727058037666666   5.974853827499990 0
ion Ni  21.454100894888885 -16.090572824833334   5.974853827499990 0
ion Ni  10.727071320555538 -26.817602399166638   5.974853827499990 0
ion Ni  16.090574722388887 -26.817602399166638   0.611327655000000 0
ion Ni  26.817604296722195 -16.090572824833334   0.611327655000000 0
ion Ni  10.727071320555538 -21.454087611999999   0.611327655000000 0
ion Ni  21.454100894888885 -10.727058037666666   0.611327655000000 0
ion Ni  26.817604296722195 -10.727058037666666   5.974853827499990 0
ion Ni  16.090574722388887 -21.454087611999999   5.974853827499990 0
ion Ni  21.454100894888885 -26.817602399166638   5.974853827499990 0
ion Ni  10.727071320555538 -16.090572824833334   5.974853827499990 0
ion Ni  16.090574722388887 -16.090572824833334   0.611327655000000 0
ion Ni  26.817604296722195 -26.817602399166638   0.611327655000000 0
ion S   4.232269668888878  -4.232271970733331   7.106125994099994 0
ion S  27.948891161222193 -27.948885064266641   4.843581660899996 0
ion S   1.131317225388885 -27.948885064266641   1.742599821599998 0
ion S   9.595784456055538  -4.232271970733331  10.207107833399991 0
ion S  27.948891161222193  -9.595786757899997  10.207107833399991 0
ion S   4.232269668888878  -1.131311128433331   1.742599821599998 0
ion S   9.595784456055538  -1.131311128433331   4.843581660899996 0
ion S   1.131317225388885  -9.595786757899997   7.106125994099994 0
ion S   4.232269668888878 -14.959301545066651   7.106125994099994 0
ion S  27.948891161222193 -17.221855489933304   4.843581660899996 0
ion S   1.131317225388885 -17.221855489933304   1.742599821599998 0
ion S   9.595784456055538 -14.959301545066651  10.207107833399991 0
ion S  27.948891161222193 -20.322816332233330  10.207107833399991 0
ion S   4.232269668888878 -22.585370277100001   1.742599821599998 0
ion S   9.595784456055538 -22.585370277100001   4.843581660899996 0
ion S   1.131317225388885 -20.322816332233330   7.106125994099994 0
ion S  14.959299243222206  -4.232271970733330   7.106125994099994 0
ion S  17.221861586888888 -27.948885064266641   4.843581660899996 0
ion S  17.221861586888888  -9.595786757899997  10.207107833399991 0
ion S  14.959299243222206  -1.131311128433331   1.742599821599998 0
ion S  20.322814030388887  -1.131311128433331   4.843581660899996 0
ion S  22.585376374055553  -9.595786757899997   7.106125994099994 0
ion S  22.585376374055553 -27.948885064266641   1.742599821599998 0
ion S  20.322814030388887  -4.232271970733330  10.207107833399991 0
ion S   4.232269668888878 -25.686331119399973   7.106125994099994 0
ion S  27.948891161222193  -6.494825915599991   4.843581660899996 0
ion S   1.131317225388885  -6.494825915599991   1.742599821599998 0
ion S   9.595784456055538 -25.686331119399973  10.207107833399991 0
ion S  27.948891161222193 -31.049845906566667  10.207107833399991 0
ion S   4.232269668888878 -11.858340702766652   1.742599821599998 0
ion S   9.595784456055538 -11.858340702766652   4.843581660899996 0
ion S   1.131317225388885 -31.049845906566667   7.106125994099994 0
ion S  25.686328817555527  -4.232271970733330   7.106125994099994 0
ion S   6.494832012555547 -27.948885064266641   4.843581660899996 0
ion S   6.494832012555547  -9.595786757899997  10.207107833399991 0
ion S  25.686328817555527  -1.131311128433331   1.742599821599998 0
ion S  31.049843604722220  -1.131311128433331   4.843581660899996 0
ion S  11.858346799722208  -9.595786757899997   7.106125994099994 0
ion S  11.858346799722208 -27.948885064266641   1.742599821599998 0
ion S  31.049843604722220  -4.232271970733330  10.207107833399991 0
ion S  14.959299243222206 -14.959301545066651   7.106125994099994 0
ion S  17.221861586888888 -17.221855489933304   4.843581660899996 0
ion S  22.585376374055553 -17.221855489933304   1.742599821599998 0
ion S  20.322814030388887 -14.959301545066651  10.207107833399991 0
ion S  17.221861586888888 -20.322816332233330  10.207107833399991 0
ion S  14.959299243222206 -22.585370277100001   1.742599821599998 0
ion S  20.322814030388887 -22.585370277100001   4.843581660899996 0
ion S  22.585376374055553 -20.322816332233330   7.106125994099994 0
ion S  14.959299243222206 -25.686331119399973   7.106125994099994 0
ion S  17.221861586888888  -6.494825915599991   4.843581660899996 0
ion S  22.585376374055553  -6.494825915599991   1.742599821599998 0
ion S  20.322814030388887 -25.686331119399973  10.207107833399991 0
ion S  17.221861586888888 -31.049845906566667  10.207107833399991 0
ion S  14.959299243222206 -11.858340702766652   1.742599821599998 0
ion S  20.322814030388887 -11.858340702766652   4.843581660899996 0
ion S  22.585376374055553 -31.049845906566667   7.106125994099994 0
ion S  25.686328817555527 -14.959301545066651   7.106125994099994 0
ion S   6.494832012555547 -17.221855489933304   4.843581660899996 0
ion S  11.858346799722208 -17.221855489933304   1.742599821599998 0
ion S  31.049843604722220 -14.959301545066651  10.207107833399991 0
ion S   6.494832012555547 -20.322816332233330  10.207107833399991 0
ion S  25.686328817555527 -22.585370277100001   1.742599821599998 0
ion S  31.049843604722220 -22.585370277100001   4.843581660899996 0
ion S  11.858346799722208 -20.322816332233330   7.106125994099994 0
ion S  25.686328817555527 -25.686331119399973   7.106125994099994 0
ion S   6.494832012555547  -6.494825915599991   4.843581660899996 0
ion S  11.858346799722208  -6.494825915599991   1.742599821599998 0
ion S  31.049843604722220 -25.686331119399973  10.207107833399991 0
ion S   6.494832012555547 -31.049845906566667  10.207107833399991 0
ion S  25.686328817555527 -11.858340702766652   1.742599821599998 0
ion S  31.049843604722220 -11.858340702766652   4.843581660899996 0
ion S  11.858346799722208 -31.049845906566667   7.106125994099994 0
ion S  15.110726148499555 -11.819462780809152  12.375979828652122 1
ion S  14.500212739448907 -22.076230756926368  15.885409413160936 1
ion S  17.587859544884630 -15.175140023024310  12.657842432212371 1
ion S  16.232771872992156 -23.113790302429496  12.770943084924081 1
ion Na  10.756425782529215 -20.706793480350186  12.660290193827624 1
ion Na  24.614137502364670 -23.790966298729899  12.246977340267573 1
ion-species GBRV/$ID_pbe.uspp
ion-width 0
ionic-minimize  \
	dirUpdateScheme      FletcherReeves \
	linminMethod         DirUpdateRecommended \
	nIterations          200 \
	history              15 \
	knormThreshold       0.0001 \
	energyDiffThreshold  1e-06 \
	nEnergyDiff          2 \
	alphaTstart          1 \
	alphaTmin            1e-10 \
	updateTestStepSize   yes \
	alphaTreduceFactor   0.1 \
	alphaTincreaseFactor 3 \
	nAlphaAdjustMax      3 \
	wolfeEnergy          0.0001 \
	wolfeGradient        0.9 \
	fdTest               no
kpoint   0.000000000000   0.000000000000   0.000000000000  1.00000000000000
kpoint-folding 1 1 1 
latt-move-scale 1 1 1
latt-scale 1 1 1 
lattice Triclinic 32.1811 32.1811 44 90 90 90
lattice-minimize  \
	dirUpdateScheme      L-BFGS \
	linminMethod         DirUpdateRecommended \
	nIterations          0 \
	history              15 \
	knormThreshold       0 \
	energyDiffThreshold  1e-06 \
	nEnergyDiff          2 \
	alphaTstart          1 \
	alphaTmin            1e-10 \
	updateTestStepSize   yes \
	alphaTreduceFactor   0.1 \
	alphaTincreaseFactor 3 \
	nAlphaAdjustMax      3 \
	wolfeEnergy          0.0001 \
	wolfeGradient        0.9 \
	fdTest               no
lcao-params -1 1e-06 0.01
pcm-variant GLSSA13
spintype no-spin
subspace-rotation-factor 1 yes
symmetries automatic
symmetry-threshold 0.0001



---------- Setting up symmetries ----------

Found 16 point-group symmetries of the bravais lattice
Found 1 space-group symmetries with basis
Applied RMS atom displacement 0 bohrs to make symmetries exact.

---------- Initializing the Grid ----------
R = 
[      32.1811            0            0  ]
[            0      32.1811            0  ]
[            0            0           44  ]
unit cell volume = 45567.4
G =
[   0.195245          0          0  ]
[          0   0.195245          0  ]
[          0          0     0.1428  ]
Minimum fftbox size, Smin = [  148  148  200  ]
Chosen fftbox size, S = [  150  150  200  ]

---------- Initializing tighter grid for wavefunction operations ----------
R = 
[      32.1811            0            0  ]
[            0      32.1811            0  ]
[            0            0           44  ]
unit cell volume = 45567.4
G =
[   0.195245          0          0  ]
[          0   0.195245          0  ]
[          0          0     0.1428  ]
Minimum fftbox size, Smin = [  132  132  180  ]
Chosen fftbox size, S = [  140  140  180  ]

---------- Exchange Correlation functional ----------
Initalized PBE GGA exchange.
Initalized PBE GGA correlation.

---------- Setting up pseudopotentials ----------
Width of ionic core gaussian charges (only for fluid interactions / plotting) set to 0

Reading pseudopotential file '/home/akim2/jdftx_install/build/pseudopotentials/GBRV/ni_pbe.uspp':
  Title: Ni.  Created by USPP 7.3.6 on 1-4-15
  Reference state energy: -170.398381.  18 valence electrons in orbitals:
    |300>  occupation: 2  eigenvalue: -4.804705
    |310>  occupation: 6  eigenvalue: -3.347751
    |320>  occupation: 8  eigenvalue: -1.042415
    |400>  occupation: 0  eigenvalue: -0.795539
    |410>  occupation: 0  eigenvalue: -0.551375
  lMax: 2  lLocal: 3  QijEcut: 6.5
  6 projectors sampled on a log grid with 611 points:
    l: 0  eig: -4.804708  rCut: 1.44
    l: 0  eig: -0.795541  rCut: 1.44
    l: 1  eig: -3.347753  rCut: 1.55
    l: 1  eig: 0.500000  rCut: 1.55
    l: 2  eig: -1.042418  rCut: 1.5
    l: 2  eig: -0.450000  rCut: 1.5
  Partial core density with radius 0.65
  Transforming core density to a uniform radial grid of dG=0.02 with 1263 points.
  Transforming local potential to a uniform radial grid of dG=0.02 with 1263 points.
  Transforming nonlocal projectors to a uniform radial grid of dG=0.02 with 432 points.
  Transforming density augmentations to a uniform radial grid of dG=0.02 with 1263 points.
  Transforming atomic orbitals to a uniform radial grid of dG=0.02 with 432 points.
  Core radius for overlap checks: 1.55 bohrs.

Reading pseudopotential file '/home/akim2/jdftx_install/build/pseudopotentials/GBRV/s_pbe.uspp':
  Title: S.  Created by USPP 7.3.6 on 1-4-15
  Reference state energy: -11.898476.  6 valence electrons in orbitals:
    |300>  occupation: 2  eigenvalue: -0.634167
    |310>  occupation: 4  eigenvalue: -0.257568
  lMax: 2  lLocal: 3  QijEcut: 6
  6 projectors sampled on a log grid with 635 points:
    l: 0  eig: -0.634161  rCut: 1.5
    l: 0  eig: 1.500000  rCut: 1.5
    l: 1  eig: -0.257567  rCut: 1.5
    l: 1  eig: 1.500000  rCut: 1.5
    l: 2  eig: -1.000000  rCut: 1.5
    l: 2  eig: 1.500000  rCut: 1.5
  Partial core density with radius 1.15
  Transforming core density to a uniform radial grid of dG=0.02 with 1263 points.
  Transforming local potential to a uniform radial grid of dG=0.02 with 1263 points.
  Transforming nonlocal projectors to a uniform radial grid of dG=0.02 with 432 points.
  Transforming density augmentations to a uniform radial grid of dG=0.02 with 1263 points.
  Transforming atomic orbitals to a uniform radial grid of dG=0.02 with 432 points.
  Core radius for overlap checks: 1.50 bohrs.

Reading pseudopotential file '/home/akim2/jdftx_install/build/pseudopotentials/GBRV/na_pbe.uspp':
  Title: Na.  Created by USPP 7.3.6 on 23-9-15
  Reference state energy: -47.625620.  9 valence electrons in orbitals:
    |200>  occupation: 2  eigenvalue: -2.085638
    |210>  occupation: 6  eigenvalue: -1.053708
    |300>  occupation: 1  eigenvalue: -0.100838
  lMax: 2  lLocal: 0  QijEcut: 6
  5 projectors sampled on a log grid with 657 points:
    l: 0  eig: -2.085640  rCut: 1.37
    l: 0  eig: -0.100839  rCut: 1.37
    l: 1  eig: -1.053708  rCut: 1.47
    l: 1  eig: 0.500000  rCut: 1.47
    l: 2  eig: 0.750000  rCut: 2
  Transforming local potential to a uniform radial grid of dG=0.02 with 1263 points.
  Transforming nonlocal projectors to a uniform radial grid of dG=0.02 with 432 points.
  Transforming density augmentations to a uniform radial grid of dG=0.02 with 1263 points.
  Transforming atomic orbitals to a uniform radial grid of dG=0.02 with 432 points.
  Core radius for overlap checks: 2.00 bohrs.

Initialized 3 species with 114 total atoms.

Folded 1 k-points by 1x1x1 to 1 k-points.

---------- Setting up k-points, bands, fillings ----------
No reducable k-points. 
Computing the number of bands and number of electrons
Reading initial fillings from file Na2S4@NiS2_S.fillings.
nElectrons: 1122.000000   nBands: 782   nStates: 1

----- Setting up reduced wavefunction bases (one per k-point) -----
average nbasis = 194745.000 , ideal nbasis = 194667.357

---------- Setting up coulomb interaction ----------
Setting up double-sized grid for truncated Coulomb potentials:
R = 
[      32.1811            0            0  ]
[            0      32.1811            0  ]
[            0            0           88  ]
unit cell volume = 91134.8
G =
[   0.195245          0          0  ]
[          0   0.195245          0  ]
[          0          0  0.0713998  ]
Chosen fftbox size, S = [  150  150  400  ]
Integer grid location selected as the embedding center:
   Grid: [  0  0  32  ]
   Lattice: [  0  0  0.159091  ]
   Cartesian: [  0  0  7  ]
Constructing Wigner-Seitz cell: 6 faces (6 quadrilaterals, 0 hexagons)
Range-separation parameter for embedded mesh potentials due to point charges: 0.591727 bohrs.
Initialized slab truncation along lattice direction 001

---------- Setting up 2D ewald sum ----------
Optimum gaussian width for ewald sums = 19.197881 bohr.
Real space sums over 225 unit cells with max indices [  7  7  0  ]
Reciprocal space sums over 81 terms with max indices [  4  4  0  ]

---------- Allocating electronic variables ----------
Initializing wave functions:  reading from 'Na2S4@NiS2_S.wfns'


---- Citations for features of the code used in this run ----

   Software package:
      R. Sundararaman, K. Letchworth-Weaver, K.A. Schwarz, D. Gunceler, Y. Ozhabes and T.A. Arias, 'JDFTx: software for joint density-functional theory', SoftwareX 6, 278 (2017)

   gga-PBE exchange-correlation functional:
      J.P. Perdew, K. Burke and M. Ernzerhof, Phys. Rev. Lett. 77, 3865 (1996)

   Pseudopotentials:
      KF Garrity, JW Bennett, KM Rabe and D Vanderbilt, Comput. Mater. Sci. 81, 446 (2014)

   Truncated Coulomb potentials:
      R. Sundararaman and T.A. Arias, Phys. Rev. B 87, 165122 (2013)

   Total energy minimization with Auxiliary Hamiltonian:
      C. Freysoldt, S. Boeck, and J. Neugebauer, Phys. Rev. B 79, 241103(R) (2009)

This list may not be complete. Please suggest additional citations or
report any other bugs at https://github.com/shankar1729/jdftx/issues

Initialization completed successfully at t[s]:      8.93


-------- Electronic minimization -----------
	FillingsUpdate:  mu: -0.177264554  nElectrons: 1122.000000
ElecMinimize: Iter:   0  F: -7040.496295295914933  |grad|_K:  4.949e-07  alpha:  1.000e+00
	FillingsUpdate:  mu: -0.177284597  nElectrons: 1122.000000
	SubspaceRotationAdjust: set factor to 0.521
ElecMinimize: Iter:   1  F: -7040.496295899964935  |grad|_K:  7.829e-08  alpha:  1.607e-02  linmin: -7.521e-04  t[s]:     27.82
	FillingsUpdate:  mu: -0.177283721  nElectrons: 1122.000000
	SubspaceRotationAdjust: set factor to 0.304
ElecMinimize: Iter:   2  F: -7040.496295921939236  |grad|_K:  2.008e-08  alpha:  2.399e-02  linmin:  1.102e-03  t[s]:     39.67
ElecMinimize: 	Predicted alpha/alphaT>3.000000, increasing alphaT to 7.195730e-02.
	FillingsUpdate:  mu: -0.177285792  nElectrons: 1122.000000
	SubspaceRotationAdjust: set factor to 0.232
ElecMinimize: Iter:   3  F: -7040.496295926496714  |grad|_K:  1.003e-08  alpha:  7.050e-02  linmin: -9.315e-04  t[s]:     54.56
	FillingsUpdate:  mu: -0.177285779  nElectrons: 1122.000000
	SubspaceRotationAdjust: set factor to 0.192
ElecMinimize: Iter:   4  F: -7040.496295928242944  |grad|_K:  6.208e-09  alpha:  9.912e-02  linmin: -1.975e-03  t[s]:     66.40
ElecMinimize: Converged (|Delta F|<1.000000e-08 for 2 iters).
Setting wave functions to eigenvectors of Hamiltonian

# Ionic positions in cartesian coordinates:
ion Ni  32.181130469222218  -0.000028463333331   0.611327655000000 0
ion Ni   5.363545148055554  -0.000028463333331   5.974853827499990 0
ion Ni  32.181130469222218  -5.363543250499998   5.974853827499990 0
ion Ni   5.363545148055554  -5.363543250499998   0.611327655000000 0
ion Ni  32.181130469222218 -10.727058037666666   0.611327655000000 0
ion Ni  32.181130469222218 -21.454087611999999   0.611327655000000 0
ion Ni   5.363545148055554 -21.454087611999999   5.974853827499990 0
ion Ni   5.363545148055554 -10.727058037666666   5.974853827499990 0
ion Ni  32.181130469222218 -16.090572824833334   5.974853827499990 0
ion Ni  32.181130469222218 -26.817602399166638   5.974853827499990 0
ion Ni   5.363545148055554 -26.817602399166638   0.611327655000000 0
ion Ni   5.363545148055554 -16.090572824833334   0.611327655000000 0
ion Ni  10.727071320555538  -0.000028463333331   0.611327655000000 0
ion Ni  21.454100894888885  -0.000028463333331   0.611327655000000 0
ion Ni  21.454100894888885  -5.363543250499998   5.974853827499990 0
ion Ni  10.727071320555538  -5.363543250499998   5.974853827499990 0
ion Ni  16.090574722388887  -5.363543250499998   0.611327655000000 0
ion Ni  26.817604296722195  -5.363543250499998   0.611327655000000 0
ion Ni  26.817604296722195  -0.000028463333331   5.974853827499990 0
ion Ni  16.090574722388887  -0.000028463333331   5.974853827499990 0
ion Ni  10.727071320555538 -10.727058037666666   0.611327655000000 0
ion Ni  21.454100894888885 -21.454087611999999   0.611327655000000 0
ion Ni  26.817604296722195 -21.454087611999999   5.974853827499990 0
ion Ni  16.090574722388887 -10.727058037666666   5.974853827499990 0
ion Ni  21.454100894888885 -16.090572824833334   5.974853827499990 0
ion Ni  10.727071320555538 -26.817602399166638   5.974853827499990 0
ion Ni  16.090574722388887 -26.817602399166638   0.611327655000000 0
ion Ni  26.817604296722195 -16.090572824833334   0.611327655000000 0
ion Ni  10.727071320555538 -21.454087611999999   0.611327655000000 0
ion Ni  21.454100894888885 -10.727058037666666   0.611327655000000 0
ion Ni  26.817604296722195 -10.727058037666666   5.974853827499990 0
ion Ni  16.090574722388887 -21.454087611999999   5.974853827499990 0
ion Ni  21.454100894888885 -26.817602399166638   5.974853827499990 0
ion Ni  10.727071320555538 -16.090572824833334   5.974853827499990 0
ion Ni  16.090574722388887 -16.090572824833334   0.611327655000000 0
ion Ni  26.817604296722195 -26.817602399166638   0.611327655000000 0
ion S   4.232269668888878  -4.232271970733331   7.106125994099994 0
ion S  27.948891161222193 -27.948885064266641   4.843581660899996 0
ion S   1.131317225388885 -27.948885064266641   1.742599821599998 0
ion S   9.595784456055538  -4.232271970733331  10.207107833399991 0
ion S  27.948891161222193  -9.595786757899997  10.207107833399991 0
ion S   4.232269668888878  -1.131311128433331   1.742599821599998 0
ion S   9.595784456055538  -1.131311128433331   4.843581660899996 0
ion S   1.131317225388885  -9.595786757899997   7.106125994099994 0
ion S   4.232269668888878 -14.959301545066651   7.106125994099994 0
ion S  27.948891161222193 -17.221855489933304   4.843581660899996 0
ion S   1.131317225388885 -17.221855489933304   1.742599821599998 0
ion S   9.595784456055538 -14.959301545066651  10.207107833399991 0
ion S  27.948891161222193 -20.322816332233330  10.207107833399991 0
ion S   4.232269668888878 -22.585370277100001   1.742599821599998 0
ion S   9.595784456055538 -22.585370277100001   4.843581660899996 0
ion S   1.131317225388885 -20.322816332233330   7.106125994099994 0
ion S  14.959299243222206  -4.232271970733330   7.106125994099994 0
ion S  17.221861586888888 -27.948885064266641   4.843581660899996 0
ion S  17.221861586888888  -9.595786757899997  10.207107833399991 0
ion S  14.959299243222206  -1.131311128433331   1.742599821599998 0
ion S  20.322814030388887  -1.131311128433331   4.843581660899996 0
ion S  22.585376374055553  -9.595786757899997   7.106125994099994 0
ion S  22.585376374055553 -27.948885064266641   1.742599821599998 0
ion S  20.322814030388887  -4.232271970733330  10.207107833399991 0
ion S   4.232269668888878 -25.686331119399973   7.106125994099994 0
ion S  27.948891161222193  -6.494825915599991   4.843581660899996 0
ion S   1.131317225388885  -6.494825915599991   1.742599821599998 0
ion S   9.595784456055538 -25.686331119399973  10.207107833399991 0
ion S  27.948891161222193 -31.049845906566667  10.207107833399991 0
ion S   4.232269668888878 -11.858340702766652   1.742599821599998 0
ion S   9.595784456055538 -11.858340702766652   4.843581660899996 0
ion S   1.131317225388885 -31.049845906566667   7.106125994099994 0
ion S  25.686328817555527  -4.232271970733330   7.106125994099994 0
ion S   6.494832012555547 -27.948885064266641   4.843581660899996 0
ion S   6.494832012555547  -9.595786757899997  10.207107833399991 0
ion S  25.686328817555527  -1.131311128433331   1.742599821599998 0
ion S  31.049843604722220  -1.131311128433331   4.843581660899996 0
ion S  11.858346799722208  -9.595786757899997   7.106125994099994 0
ion S  11.858346799722208 -27.948885064266641   1.742599821599998 0
ion S  31.049843604722220  -4.232271970733330  10.207107833399991 0
ion S  14.959299243222206 -14.959301545066651   7.106125994099994 0
ion S  17.221861586888888 -17.221855489933304   4.843581660899996 0
ion S  22.585376374055553 -17.221855489933304   1.742599821599998 0
ion S  20.322814030388887 -14.959301545066651  10.207107833399991 0
ion S  17.221861586888888 -20.322816332233330  10.207107833399991 0
ion S  14.959299243222206 -22.585370277100001   1.742599821599998 0
ion S  20.322814030388887 -22.585370277100001   4.843581660899996 0
ion S  22.585376374055553 -20.322816332233330   7.106125994099994 0
ion S  14.959299243222206 -25.686331119399973   7.106125994099994 0
ion S  17.221861586888888  -6.494825915599991   4.843581660899996 0
ion S  22.585376374055553  -6.494825915599991   1.742599821599998 0
ion S  20.322814030388887 -25.686331119399973  10.207107833399991 0
ion S  17.221861586888888 -31.049845906566667  10.207107833399991 0
ion S  14.959299243222206 -11.858340702766652   1.742599821599998 0
ion S  20.322814030388887 -11.858340702766652   4.843581660899996 0
ion S  22.585376374055553 -31.049845906566667   7.106125994099994 0
ion S  25.686328817555527 -14.959301545066651   7.106125994099994 0
ion S   6.494832012555547 -17.221855489933304   4.843581660899996 0
ion S  11.858346799722208 -17.221855489933304   1.742599821599998 0
ion S  31.049843604722220 -14.959301545066651  10.207107833399991 0
ion S   6.494832012555547 -20.322816332233330  10.207107833399991 0
ion S  25.686328817555527 -22.585370277100001   1.742599821599998 0
ion S  31.049843604722220 -22.585370277100001   4.843581660899996 0
ion S  11.858346799722208 -20.322816332233330   7.106125994099994 0
ion S  25.686328817555527 -25.686331119399973   7.106125994099994 0
ion S   6.494832012555547  -6.494825915599991   4.843581660899996 0
ion S  11.858346799722208  -6.494825915599991   1.742599821599998 0
ion S  31.049843604722220 -25.686331119399973  10.207107833399991 0
ion S   6.494832012555547 -31.049845906566667  10.207107833399991 0
ion S  25.686328817555527 -11.858340702766652   1.742599821599998 0
ion S  31.049843604722220 -11.858340702766652   4.843581660899996 0
ion S  11.858346799722208 -31.049845906566667   7.106125994099994 0
ion S  15.110726148499555 -11.819462780809152  12.375979828652122 1
ion S  14.500212739448907 -22.076230756926368  15.885409413160936 1
ion S  17.587859544884630 -15.175140023024310  12.657842432212371 1
ion S  16.232771872992156 -23.113790302429496  12.770943084924081 1
ion Na  10.756425782529215 -20.706793480350186  12.660290193827624 1
ion Na  24.614137502364670 -23.790966298729899  12.246977340267573 1

# Forces in Cartesian coordinates:
force Ni   0.023470966711032   0.011658023029494   0.038502549868649 0
force Ni  -0.001835682760920   0.000418917099704   0.009875737413847 0
force Ni   0.001795350068002   0.000553132613406   0.009789879752572 0
force Ni  -0.023489627288730   0.011626568846778   0.038551622311925 0
force Ni   0.023542417248352   0.011621193277647   0.038576157292732 0
force Ni   0.023457419259583   0.011664003885223   0.038470858061082 0
force Ni  -0.001233149198837  -0.000666277925883   0.008002714878442 0
force Ni  -0.001555090850749   0.000575563302038   0.009934146422379 0
force Ni   0.001202939261252   0.000417916412750   0.010395194983130 0
force Ni   0.001583841401976   0.000211240391919   0.009267339357113 0
force Ni  -0.023439865263011   0.011730743612356   0.038469386075524 0
force Ni  -0.023534288665595   0.011635414044118   0.038564325019658 0
force Ni   0.023543582142985   0.011591503540911   0.038495891552819 0
force Ni   0.023489218124736   0.011640611156413   0.038595511175945 0
force Ni   0.001119031287038   0.000610073208856   0.010515416484498 0
force Ni   0.001700027045206   0.000443874349961   0.009756027310609 0
force Ni  -0.023731366002861   0.011390865600604   0.037755184347524 0
force Ni  -0.023551690549759   0.011576959701272   0.038438253045352 0
force Ni  -0.002006938242490   0.000466748798234   0.009409373377307 0
force Ni  -0.001913204733270   0.000570125222439   0.009731943296717 0
force Ni   0.023842883753667   0.011570832349136   0.038383966522354 0
force Ni   0.023714680759370   0.012382133062049   0.038036466092818 0
force Ni  -0.001892006721935  -0.000109513626888   0.007843848787880 0
force Ni  -0.004385243635552  -0.003387075591454  -0.001276202116256 0
force Ni  -0.003267287242331  -0.007732306778204  -0.006221178252159 0
force Ni   0.002556301058577   0.000362157832862   0.008655875814076 0
force Ni  -0.023573467265802   0.012058888298433   0.038426517080123 0
force Ni  -0.024021655437856   0.011710816820888   0.038038319123724 0
force Ni   0.023884278705644   0.011901014895133   0.038530288530537 0
force Ni   0.023627524034131   0.011377742753777   0.037875096124209 0
force Ni  -0.001103952213493   0.000874995048701   0.010229148697788 0
force Ni  -0.005143763878525  -0.005628488388306   0.001020245009893 0
force Ni   0.003584656352231  -0.001228836014671   0.006887516434008 0
force Ni   0.002129060294122   0.000857228095976   0.009852858086025 0
force Ni  -0.023831806159581   0.011241544134596   0.036698581998090 0
force Ni  -0.023654349693176   0.011878416516060   0.038647006814801 0
force S  -0.004569388558815   0.004143026332331   0.003828422858414 0
force S   0.005430502955674  -0.002863009164618  -0.011107825940558 0
force S  -0.002761581272463  -0.006954716646534  -0.019671937432124 0
force S  -0.003933047923828  -0.008565580494902  -0.020956801519156 0
force S   0.004124269748679  -0.008619700326775  -0.020985472256033 0
force S   0.002583341377673  -0.006933690088084  -0.019749084366870 0
force S  -0.003257389138364  -0.001143653189903  -0.011349969262097 0
force S   0.004562234416032   0.004100477338845   0.003814443158677 0
force S  -0.004495230244200   0.004149979842193   0.003377687703315 0
force S   0.001762470333542  -0.000771129225526  -0.010407293789435 0
force S  -0.002665655398351  -0.006987596678139  -0.019834097173754 0
force S  -0.001292574563347  -0.010339175603623  -0.016848043905475 0
force S   0.002136425160631  -0.008982306294598  -0.016881902555445 0
force S   0.002687160247635  -0.007007960191227  -0.019520925850878 0
force S  -0.004732933546877  -0.002649618274050  -0.011218420623020 0
force S   0.004352516184058   0.003418227513517   0.002308678996436 0
force S  -0.003985571211561   0.005064416983565   0.003470476012019 0
force S   0.003674718976320  -0.000963303583088  -0.010475873324099 0
force S  -0.009814199642255  -0.000866560314907  -0.004395762447247 0
force S   0.002482104620345  -0.006770416728851  -0.019904730924993 0
force S  -0.003134837100774  -0.001103767802563  -0.011292240979406 0
force S   0.005356690262276   0.003333440953441   0.001135595025331 0
force S  -0.002725226415956  -0.006913401351068  -0.020076579996881 0
force S   0.001048986895098  -0.001027937860783  -0.021364979261286 0
force S  -0.004562120863220   0.003641083011832   0.003148167234343 0
force S   0.003373875954756  -0.001052845330484  -0.011504335822866 0
force S  -0.002565211810569  -0.006945138741189  -0.019682203223129 0
force S  -0.002113575190116  -0.008725906463869  -0.018490641432697 0
force S   0.003440661925550  -0.008075508847960  -0.020244436848710 0
force S   0.002477803048114  -0.006899374779260  -0.019808377926871 0
force S  -0.002903194654389  -0.000154423617973  -0.011032215223990 0
force S   0.004698316276447   0.003997804157738   0.003731140638222 0
force S  -0.004740141077994   0.004182212005786   0.004156590662460 0
force S   0.002975395949949  -0.000765832580623  -0.011079376911591 0
force S   0.002868813938403  -0.006681925245616  -0.020992780074122 0
force S   0.002649913701541  -0.006867154419564  -0.019623591474427 0
force S  -0.003192202561028  -0.000915124395370  -0.011312890485086 0
force S   0.002573996734507   0.004568892674629   0.000009964274982 0
force S  -0.002780240623735  -0.006799922806670  -0.019501423380503 0
force S  -0.003704883871678  -0.008836305131874  -0.021225263785697 0
force S  -0.008481508349848   0.003592854568096  -0.006435896264009 0
force S   0.003667676064339  -0.000545354623858  -0.009382526666108 0
force S  -0.000240388239357  -0.008278851029874  -0.022767172322501 0
force S   0.016541982391581   0.010381792438503   0.008467485657732 0
force S  -0.009085190656615  -0.006971085803935  -0.001595383817343 0
force S   0.002096854338344  -0.007631718891550  -0.021301158955073 0
force S  -0.004638390162530  -0.001522783163315  -0.010665201126796 0
force S   0.006172112444560   0.004842357952665   0.001079066117582 0
force S  -0.005617447864182   0.002632805740481   0.000636464629172 0
force S   0.002811870422933  -0.000981830248658  -0.010848379404626 0
force S  -0.002385923595475  -0.006613442339830  -0.019954728890191 0
force S   0.002779760904935  -0.015007460552438  -0.019012839832003 0
force S   0.002836715263635  -0.010982902649807  -0.021479255303365 0
force S   0.001850059605441  -0.007368481302269  -0.020600401311738 0
force S  -0.002740231089744   0.000036040327625  -0.010167033867303 0
force S   0.004063604431287   0.004644559171028   0.003553984166501 0
force S  -0.003124662121043   0.004549575629460   0.002054868987801 0
force S   0.002984619114349  -0.000148106919600  -0.011849283538908 0
force S  -0.002549496532769  -0.007030160294028  -0.019966998026359 0
force S  -0.002335736507650  -0.005366266744246  -0.021026191558143 0
force S  -0.007048099787481  -0.005826914211645  -0.019884786635938 0
force S   0.002871208328104  -0.006948008568232  -0.019815878525633 0
force S  -0.002695281965722  -0.000074799499972  -0.010976417919655 0
force S   0.007061258720738   0.006066821713497  -0.001429504878776 0
force S  -0.007235880441908   0.004342154406501  -0.001852324971829 0
force S   0.003009400326041  -0.000951151699502  -0.011385200396626 0
force S  -0.002428417740798  -0.006711994090439  -0.019746672285443 0
force S  -0.003651214192665  -0.008672598115517  -0.018791597769527 0
force S   0.003108687410207  -0.010022559957843  -0.021448067536881 0
force S   0.002465617927596  -0.007015109223960  -0.020053844132235 0
force S  -0.003027723899665  -0.000940099831523  -0.011379684237851 0
force S   0.004397855824432   0.004018145852774   0.003794567817346 0
force S   0.010935613631759   0.002430443962393  -0.003241597093493 1
force S  -0.001294542235625   0.008023930651841   0.006000497279841 1
force S  -0.004853097103992  -0.007104805382423   0.006942096150682 1
force S   0.006046525606678  -0.010629490231403  -0.009061577183430 1
force Na   0.001880858822458   0.001577276125059  -0.000155483845441 1
force Na   0.003539127681311  -0.000236456037228   0.001221923959007 1

# Energy components:
   Eewald =   -18835.4270920348935761
       EH =   -12697.3965673617731227
     Eloc =    23264.7323508624067472
      Enl =      912.7012602483941919
      Exc =     -970.5271435797560571
 Exc_core =      148.7859898981931224
       KE =     1137.6460054524570751
-------------------------------------
     Etot =    -7039.4851965149709940
       TS =        1.0110994132720788
-------------------------------------
        F =    -7040.4962959282429438

IonicMinimize: Iter:   0  F: -7040.496295928242944  |grad|_K:  5.831e-03  alpha:  1.000e+00

#--- Lowdin population analysis ---
# oxidation-state Ni -0.002 -0.448 -0.449 -0.002 -0.002 -0.002 -0.441 -0.448 -0.448 -0.446 -0.002 -0.001 -0.002 -0.002 -0.454 -0.449 -0.000 -0.001 -0.448 -0.447 -0.002 -0.002 -0.450 -0.465 -0.461 -0.444 -0.003 -0.002 -0.002 -0.000 -0.446 -0.455 -0.447 -0.445 +0.002 -0.002
# oxidation-state S +0.318 +0.446 +0.085 -0.034 -0.034 +0.085 +0.445 +0.318 +0.316 +0.449 +0.084 -0.129 -0.205 +0.086 +0.444 +0.316 +0.310 +0.444 +0.114 +0.084 +0.446 +0.284 +0.085 -0.071 +0.316 +0.444 +0.085 -0.139 -0.064 +0.085 +0.446 +0.317 +0.318 +0.444 -0.036 +0.085 +0.444 +0.298 +0.086 -0.026 +0.255 +0.423 +0.082 +0.059 +0.022 +0.083 +0.437 +0.254 +0.296 +0.428 +0.084 -0.250 -0.038 +0.083 +0.430 +0.318 +0.291 +0.443 +0.084 -0.034 -0.190 +0.086 +0.445 +0.244 +0.251 +0.445 +0.085 -0.086 -0.029 +0.084 +0.445 +0.316 +0.185 -0.243 +0.229 +0.344
# oxidation-state Na +0.699 +0.738


-------- Electronic minimization -----------
	FillingsUpdate:  mu: -0.177405222  nElectrons: 1122.000000
ElecMinimize: Iter:   0  F: -7040.496707597225395  |grad|_K:  9.459e-07  alpha:  1.000e+00
	FillingsUpdate:  mu: -0.177313975  nElectrons: 1122.000000
	SubspaceRotationAdjust: set factor to 0.135
ElecMinimize: Iter:   1  F: -7040.496792073015058  |grad|_K:  1.024e-06  alpha:  6.189e-01  linmin: -9.627e-07  t[s]:     92.18
	FillingsUpdate:  mu: -0.177376851  nElectrons: 1122.000000
	SubspaceRotationAdjust: set factor to 0.114
ElecMinimize: Iter:   2  F: -7040.496809671205483  |grad|_K:  3.588e-07  alpha:  1.098e-01  linmin: -2.245e-05  t[s]:    104.04
ElecMinimize: 	Predicted alpha/alphaT>3.000000, increasing alphaT to 3.294120e-01.
	FillingsUpdate:  mu: -0.177360580  nElectrons: 1122.000000
	SubspaceRotationAdjust: set factor to 0.108
ElecMinimize: Iter:   3  F: -7040.496816866075278  |grad|_K:  3.898e-07  alpha:  3.659e-01  linmin:  3.279e-07  t[s]:    118.94
	FillingsUpdate:  mu: -0.177409507  nElectrons: 1122.000000
	SubspaceRotationAdjust: set factor to 0.132
ElecMinimize: Iter:   4  F: -7040.496823264797058  |grad|_K:  2.709e-07  alpha:  2.760e-01  linmin:  5.650e-08  t[s]:    130.87
	FillingsUpdate:  mu: -0.177418203  nElectrons: 1122.000000
	SubspaceRotationAdjust: set factor to 0.145
ElecMinimize: Iter:   5  F: -7040.496827556045901  |grad|_K:  2.555e-07  alpha:  3.832e-01  linmin: -1.081e-07  t[s]:    142.80
	FillingsUpdate:  mu: -0.177398142  nElectrons: 1122.000000
	SubspaceRotationAdjust: set factor to 0.13
ElecMinimize: Iter:   6  F: -7040.496830345633498  |grad|_K:  2.356e-07  alpha:  2.801e-01  linmin: -1.110e-07  t[s]:    154.73
	FillingsUpdate:  mu: -0.177405500  nElectrons: 1122.000000
	SubspaceRotationAdjust: set factor to 0.11
ElecMinimize: Iter:   7  F: -7040.496832907776479  |grad|_K:  2.225e-07  alpha:  3.026e-01  linmin:  3.914e-07  t[s]:    166.64
	FillingsUpdate:  mu: -0.177384028  nElectrons: 1122.000000
	SubspaceRotationAdjust: set factor to 0.112
ElecMinimize: Iter:   8  F: -7040.496835450261642  |grad|_K:  2.013e-07  alpha:  3.364e-01  linmin:  6.340e-07  t[s]:    178.56
	FillingsUpdate:  mu: -0.177392120  nElectrons: 1122.000000
	SubspaceRotationAdjust: set factor to 0.115
ElecMinimize: Iter:   9  F: -7040.496837127264371  |grad|_K:  1.382e-07  alpha:  2.712e-01  linmin: -2.099e-07  t[s]:    190.50
	FillingsUpdate:  mu: -0.177405109  nElectrons: 1122.000000
	SubspaceRotationAdjust: set factor to 0.108
ElecMinimize: Iter:  10  F: -7040.496838445385038  |grad|_K:  1.455e-07  alpha:  4.524e-01  linmin:  1.956e-06  t[s]:    202.42
	FillingsUpdate:  mu: -0.177399223  nElectrons: 1122.000000
	SubspaceRotationAdjust: set factor to 0.101
ElecMinimize: Iter:  11  F: -7040.496839180627831  |grad|_K:  1.007e-07  alpha:  2.276e-01  linmin: -6.455e-08  t[s]:    214.34
	FillingsUpdate:  mu: -0.177403134  nElectrons: 1122.000000
	SubspaceRotationAdjust: set factor to 0.107
ElecMinimize: Iter:  12  F: -7040.496839741206713  |grad|_K:  7.271e-08  alpha:  3.620e-01  linmin: -1.828e-06  t[s]:    226.27
	FillingsUpdate:  mu: -0.177396883  nElectrons: 1122.000000
	SubspaceRotationAdjust: set factor to 0.0992
ElecMinimize: Iter:  13  F: -7040.496839953133531  |grad|_K:  5.964e-08  alpha:  2.626e-01  linmin:  5.797e-07  t[s]:    238.19
	FillingsUpdate:  mu: -0.177394240  nElectrons: 1122.000000
	SubspaceRotationAdjust: set factor to 0.0948
ElecMinimize: Iter:  14  F: -7040.496840141602661  |grad|_K:  4.358e-08  alpha:  3.462e-01  linmin: -1.851e-05  t[s]:    250.12
	FillingsUpdate:  mu: -0.177396133  nElectrons: 1122.000000
	SubspaceRotationAdjust: set factor to 0.0868
ElecMinimize: Iter:  15  F: -7040.496840218543184  |grad|_K:  3.038e-08  alpha:  2.651e-01  linmin:  1.703e-05  t[s]:    262.04
	FillingsUpdate:  mu: -0.177394669  nElectrons: 1122.000000
	SubspaceRotationAdjust: set factor to 0.0866
ElecMinimize: Iter:  16  F: -7040.496840257969779  |grad|_K:  2.378e-08  alpha:  2.834e-01  linmin:  2.754e-05  t[s]:    273.95
	FillingsUpdate:  mu: -0.177396276  nElectrons: 1122.000000
	SubspaceRotationAdjust: set factor to 0.0945
ElecMinimize: Iter:  17  F: -7040.496840289848478  |grad|_K:  1.682e-08  alpha:  3.698e-01  linmin:  4.600e-06  t[s]:    285.86
	FillingsUpdate:  mu: -0.177397916  nElectrons: 1122.000000
	SubspaceRotationAdjust: set factor to 0.0958
ElecMinimize: Iter:  18  F: -7040.496840303636418  |grad|_K:  1.609e-08  alpha:  3.252e-01  linmin:  1.485e-04  t[s]:    297.79
	FillingsUpdate:  mu: -0.177396706  nElectrons: 1122.000000
	SubspaceRotationAdjust: set factor to 0.0992
ElecMinimize: Iter:  19  F: -7040.496840315817280  |grad|_K:  1.117e-08  alpha:  3.161e-01  linmin:  4.268e-05  t[s]:    309.72
	FillingsUpdate:  mu: -0.177396389  nElectrons: 1122.000000
	SubspaceRotationAdjust: set factor to 0.1
ElecMinimize: Iter:  20  F: -7040.496840322336539  |grad|_K:  1.065e-08  alpha:  3.648e-01  linmin:  3.542e-04  t[s]:    321.63
	FillingsUpdate:  mu: -0.177396634  nElectrons: 1122.000000
	SubspaceRotationAdjust: set factor to 0.108
ElecMinimize: Iter:  21  F: -7040.496840327268728  |grad|_K:  8.301e-09  alpha:  3.020e-01  linmin:  2.173e-04  t[s]:    333.60
ElecMinimize: Converged (|Delta F|<1.000000e-08 for 2 iters).
Setting wave functions to eigenvectors of Hamiltonian
IonicMinimize: 	Predicted alpha/alphaT>3.000000, increasing alphaT to 3.000000e+00.

-------- Electronic minimization -----------
	FillingsUpdate:  mu: -0.177245955  nElectrons: 1122.000000
ElecMinimize: Iter:   0  F: -7040.490813524585974  |grad|_K:  8.531e-06  alpha:  1.000e+00
	FillingsUpdate:  mu: -0.177298336  nElectrons: 1122.000000
	SubspaceRotationAdjust: set factor to 0.113
ElecMinimize: Iter:   1  F: -7040.495519683740895  |grad|_K:  4.204e-06  alpha:  4.239e-01  linmin:  2.124e-05  t[s]:    355.34
	FillingsUpdate:  mu: -0.177429323  nElectrons: 1122.000000
	SubspaceRotationAdjust: set factor to 0.107
ElecMinimize: Iter:   2  F: -7040.496866187822889  |grad|_K:  2.393e-06  alpha:  4.993e-01  linmin: -7.227e-06  t[s]:    367.21
	FillingsUpdate:  mu: -0.177421933  nElectrons: 1122.000000
	SubspaceRotationAdjust: set factor to 0.0889
ElecMinimize: Iter:   3  F: -7040.497038695489209  |grad|_K:  1.707e-06  alpha:  1.974e-01  linmin:  1.969e-06  t[s]:    379.07
	FillingsUpdate:  mu: -0.177548811  nElectrons: 1122.000000
	SubspaceRotationAdjust: set factor to 0.102
ElecMinimize: Iter:   4  F: -7040.497241152274910  |grad|_K:  1.250e-06  alpha:  4.553e-01  linmin: -8.222e-07  t[s]:    390.92
	FillingsUpdate:  mu: -0.177592188  nElectrons: 1122.000000
	SubspaceRotationAdjust: set factor to 0.109
ElecMinimize: Iter:   5  F: -7040.497313161307829  |grad|_K:  9.970e-07  alpha:  3.018e-01  linmin: -5.373e-07  t[s]:    402.78
	FillingsUpdate:  mu: -0.177617080  nElectrons: 1122.000000
	SubspaceRotationAdjust: set factor to 0.112
ElecMinimize: Iter:   6  F: -7040.497363139244044  |grad|_K:  8.493e-07  alpha:  3.295e-01  linmin: -3.009e-07  t[s]:    414.67
	FillingsUpdate:  mu: -0.177577197  nElectrons: 1122.000000
	SubspaceRotationAdjust: set factor to 0.106
ElecMinimize: Iter:   7  F: -7040.497415367577560  |grad|_K:  7.606e-07  alpha:  4.745e-01  linmin: -3.259e-07  t[s]:    426.54
	FillingsUpdate:  mu: -0.177638942  nElectrons: 1122.000000
	SubspaceRotationAdjust: set factor to 0.105
ElecMinimize: Iter:   8  F: -7040.497442889191916  |grad|_K:  7.184e-07  alpha:  3.117e-01  linmin: -7.840e-08  t[s]:    438.41
	FillingsUpdate:  mu: -0.177601419  nElectrons: 1122.000000
	SubspaceRotationAdjust: set factor to 0.121
ElecMinimize: Iter:   9  F: -7040.497474539492941  |grad|_K:  4.998e-07  alpha:  4.019e-01  linmin:  6.314e-07  t[s]:    450.28
	FillingsUpdate:  mu: -0.177608149  nElectrons: 1122.000000
	SubspaceRotationAdjust: set factor to 0.124
ElecMinimize: Iter:  10  F: -7040.497495064317263  |grad|_K:  5.497e-07  alpha:  5.385e-01  linmin:  3.868e-07  t[s]:    462.14
	FillingsUpdate:  mu: -0.177598755  nElectrons: 1122.000000
	SubspaceRotationAdjust: set factor to 0.115
ElecMinimize: Iter:  11  F: -7040.497511647479769  |grad|_K:  5.322e-07  alpha:  3.596e-01  linmin:  8.204e-08  t[s]:    474.02
	FillingsUpdate:  mu: -0.177631069  nElectrons: 1122.000000
	SubspaceRotationAdjust: set factor to 0.0888
ElecMinimize: Iter:  12  F: -7040.497521954670447  |grad|_K:  3.298e-07  alpha:  2.385e-01  linmin:  1.899e-08  t[s]:    485.88
	FillingsUpdate:  mu: -0.177561058  nElectrons: 1122.000000
	SubspaceRotationAdjust: set factor to 0.0768
ElecMinimize: Iter:  13  F: -7040.497528877919649  |grad|_K:  2.906e-07  alpha:  4.173e-01  linmin:  1.172e-06  t[s]:    497.75
	FillingsUpdate:  mu: -0.177610395  nElectrons: 1122.000000
	SubspaceRotationAdjust: set factor to 0.0861
ElecMinimize: Iter:  14  F: -7040.497532801084162  |grad|_K:  1.900e-07  alpha:  3.045e-01  linmin: -2.162e-07  t[s]:    509.64
	FillingsUpdate:  mu: -0.177605758  nElectrons: 1122.000000
	SubspaceRotationAdjust: set factor to 0.0802
ElecMinimize: Iter:  15  F: -7040.497534847416318  |grad|_K:  1.447e-07  alpha:  3.716e-01  linmin:  7.897e-07  t[s]:    521.49
	FillingsUpdate:  mu: -0.177606286  nElectrons: 1122.000000
	SubspaceRotationAdjust: set factor to 0.0796
ElecMinimize: Iter:  16  F: -7040.497535947036340  |grad|_K:  1.010e-07  alpha:  3.441e-01  linmin:  3.206e-07  t[s]:    533.36
	FillingsUpdate:  mu: -0.177616987  nElectrons: 1122.000000
	SubspaceRotationAdjust: set factor to 0.0807
ElecMinimize: Iter:  17  F: -7040.497536397458134  |grad|_K:  8.269e-08  alpha:  2.895e-01  linmin: -1.055e-06  t[s]:    545.22
	FillingsUpdate:  mu: -0.177612024  nElectrons: 1122.000000
	SubspaceRotationAdjust: set factor to 0.0945
ElecMinimize: Iter:  18  F: -7040.497536842332011  |grad|_K:  5.543e-08  alpha:  4.261e-01  linmin: -2.461e-06  t[s]:    557.11
	FillingsUpdate:  mu: -0.177614755  nElectrons: 1122.000000
	SubspaceRotationAdjust: set factor to 0.101
ElecMinimize: Iter:  19  F: -7040.497537013689907  |grad|_K:  5.285e-08  alpha:  3.656e-01  linmin: -4.606e-06  t[s]:    569.00
	FillingsUpdate:  mu: -0.177615723  nElectrons: 1122.000000
	SubspaceRotationAdjust: set factor to 0.114
ElecMinimize: Iter:  20  F: -7040.497537213205760  |grad|_K:  4.605e-08  alpha:  4.673e-01  linmin: -1.185e-06  t[s]:    580.86
	FillingsUpdate:  mu: -0.177613289  nElectrons: 1122.000000
	SubspaceRotationAdjust: set factor to 0.116
ElecMinimize: Iter:  21  F: -7040.497537318829018  |grad|_K:  4.213e-08  alpha:  3.267e-01  linmin:  1.227e-06  t[s]:    592.74
	FillingsUpdate:  mu: -0.177614397  nElectrons: 1122.000000
	SubspaceRotationAdjust: set factor to 0.119
ElecMinimize: Iter:  22  F: -7040.497537420464141  |grad|_K:  3.607e-08  alpha:  3.759e-01  linmin:  3.673e-06  t[s]:    604.60
	FillingsUpdate:  mu: -0.177617989  nElectrons: 1122.000000
	SubspaceRotationAdjust: set factor to 0.116
ElecMinimize: Iter:  23  F: -7040.497537488055059  |grad|_K:  3.138e-08  alpha:  3.420e-01  linmin:  1.097e-05  t[s]:    616.47
	FillingsUpdate:  mu: -0.177615324  nElectrons: 1122.000000
	SubspaceRotationAdjust: set factor to 0.105
ElecMinimize: Iter:  24  F: -7040.497537533296054  |grad|_K:  2.375e-08  alpha:  3.026e-01  linmin:  1.051e-05  t[s]:    628.39
	FillingsUpdate:  mu: -0.177615080  nElectrons: 1122.000000
	SubspaceRotationAdjust: set factor to 0.0953
ElecMinimize: Iter:  25  F: -7040.497537560770070  |grad|_K:  1.964e-08  alpha:  3.217e-01  linmin:  4.655e-05  t[s]:    640.29
	FillingsUpdate:  mu: -0.177615688  nElectrons: 1122.000000
	SubspaceRotationAdjust: set factor to 0.0958
ElecMinimize: Iter:  26  F: -7040.497537579903110  |grad|_K:  1.590e-08  alpha:  3.343e-01  linmin:  2.000e-05  t[s]:    652.14
	FillingsUpdate:  mu: -0.177614833  nElectrons: 1122.000000
	SubspaceRotationAdjust: set factor to 0.103
ElecMinimize: Iter:  27  F: -7040.497537592501430  |grad|_K:  1.094e-08  alpha:  3.296e-01  linmin: -5.779e-06  t[s]:    664.02
	FillingsUpdate:  mu: -0.177615354  nElectrons: 1122.000000
	SubspaceRotationAdjust: set factor to 0.105
ElecMinimize: Iter:  28  F: -7040.497537601438125  |grad|_K:  1.035e-08  alpha:  4.934e-01  linmin:  6.574e-05  t[s]:    675.97
	FillingsUpdate:  mu: -0.177615374  nElectrons: 1122.000000
	SubspaceRotationAdjust: set factor to 0.105
ElecMinimize: Iter:  29  F: -7040.497537606508558  |grad|_K:  9.052e-09  alpha:  3.177e-01  linmin:  6.814e-05  t[s]:    687.83
ElecMinimize: Converged (|Delta F|<1.000000e-08 for 2 iters).
Setting wave functions to eigenvectors of Hamiltonian

-------- Electronic minimization -----------
	FillingsUpdate:  mu: -0.177486137  nElectrons: 1122.000000
ElecMinimize: Iter:   0  F: -7040.493265678122043  |grad|_K:  6.965e-06  alpha:  1.000e+00
	FillingsUpdate:  mu: -0.177519787  nElectrons: 1122.000000
	SubspaceRotationAdjust: set factor to 0.107
ElecMinimize: Iter:   1  F: -7040.496385938118692  |grad|_K:  3.505e-06  alpha:  4.217e-01  linmin:  1.559e-05  t[s]:    709.56
	FillingsUpdate:  mu: -0.177614722  nElectrons: 1122.000000
	SubspaceRotationAdjust: set factor to 0.0926
ElecMinimize: Iter:   2  F: -7040.497207305145821  |grad|_K:  2.738e-06  alpha:  4.383e-01  linmin: -3.135e-06  t[s]:    721.47
	FillingsUpdate:  mu: -0.177630906  nElectrons: 1122.000000
	SubspaceRotationAdjust: set factor to 0.0824
ElecMinimize: Iter:   3  F: -7040.497394881052060  |grad|_K:  1.256e-06  alpha:  1.640e-01  linmin:  2.398e-06  t[s]:    733.36
ElecMinimize: 	Predicted alpha/alphaT>3.000000, increasing alphaT to 4.920567e-01.
	FillingsUpdate:  mu: -0.177717244  nElectrons: 1122.000000
	SubspaceRotationAdjust: set factor to 0.0945
ElecMinimize: Iter:   4  F: -7040.497533895137167  |grad|_K:  1.031e-06  alpha:  5.775e-01  linmin: -8.972e-07  t[s]:    748.28
	FillingsUpdate:  mu: -0.177753715  nElectrons: 1122.000000
	SubspaceRotationAdjust: set factor to 0.102
ElecMinimize: Iter:   5  F: -7040.497584650403041  |grad|_K:  8.037e-07  alpha:  3.129e-01  linmin: -5.148e-07  t[s]:    760.19
	FillingsUpdate:  mu: -0.177781518  nElectrons: 1122.000000
	SubspaceRotationAdjust: set factor to 0.109
ElecMinimize: Iter:   6  F: -7040.497617739992165  |grad|_K:  6.720e-07  alpha:  3.357e-01  linmin: -7.095e-08  t[s]:    772.13
	FillingsUpdate:  mu: -0.177758824  nElectrons: 1122.000000
	SubspaceRotationAdjust: set factor to 0.108
ElecMinimize: Iter:   7  F: -7040.497655178824971  |grad|_K:  5.958e-07  alpha:  5.433e-01  linmin: -4.025e-07  t[s]:    784.07
	FillingsUpdate:  mu: -0.177814853  nElectrons: 1122.000000
	SubspaceRotationAdjust: set factor to 0.106
ElecMinimize: Iter:   8  F: -7040.497674030952112  |grad|_K:  6.213e-07  alpha:  3.480e-01  linmin: -8.329e-08  t[s]:    795.99
	FillingsUpdate:  mu: -0.177771717  nElectrons: 1122.000000
	SubspaceRotationAdjust: set factor to 0.122
ElecMinimize: Iter:   9  F: -7040.497696009630999  |grad|_K:  4.206e-07  alpha:  3.731e-01  linmin:  4.371e-07  t[s]:    807.92
	FillingsUpdate:  mu: -0.177796521  nElectrons: 1122.000000
	SubspaceRotationAdjust: set factor to 0.126
ElecMinimize: Iter:  10  F: -7040.497710272305085  |grad|_K:  5.190e-07  alpha:  5.285e-01  linmin:  3.803e-07  t[s]:    819.85
	FillingsUpdate:  mu: -0.177763465  nElectrons: 1122.000000
	SubspaceRotationAdjust: set factor to 0.108
ElecMinimize: Iter:  11  F: -7040.497722526131838  |grad|_K:  4.352e-07  alpha:  2.982e-01  linmin: -9.761e-08  t[s]:    831.80
	FillingsUpdate:  mu: -0.177799946  nElectrons: 1122.000000
	SubspaceRotationAdjust: set factor to 0.0784
ElecMinimize: Iter:  12  F: -7040.497730518860408  |grad|_K:  2.813e-07  alpha:  2.765e-01  linmin:  1.055e-07  t[s]:    843.72
	FillingsUpdate:  mu: -0.177746229  nElectrons: 1122.000000
	SubspaceRotationAdjust: set factor to 0.068
ElecMinimize: Iter:  13  F: -7040.497735980314246  |grad|_K:  2.411e-07  alpha:  4.524e-01  linmin:  1.016e-06  t[s]:    855.65
	FillingsUpdate:  mu: -0.177783048  nElectrons: 1122.000000
	SubspaceRotationAdjust: set factor to 0.0727
ElecMinimize: Iter:  14  F: -7040.497738513459808  |grad|_K:  1.681e-07  alpha:  2.856e-01  linmin: -1.786e-07  t[s]:    867.60
	FillingsUpdate:  mu: -0.177780873  nElectrons: 1122.000000
	SubspaceRotationAdjust: set factor to 0.0707
ElecMinimize: Iter:  15  F: -7040.497740074423746  |grad|_K:  1.198e-07  alpha:  3.621e-01  linmin:  2.693e-06  t[s]:    879.53
	FillingsUpdate:  mu: -0.177779873  nElectrons: 1122.000000
	SubspaceRotationAdjust: set factor to 0.0803
ElecMinimize: Iter:  16  F: -7040.497740860250815  |grad|_K:  8.579e-08  alpha:  3.590e-01  linmin:  9.488e-07  t[s]:    891.46
	FillingsUpdate:  mu: -0.177787480  nElectrons: 1122.000000
	SubspaceRotationAdjust: set factor to 0.0794
ElecMinimize: Iter:  17  F: -7040.497741220486205  |grad|_K:  6.954e-08  alpha:  3.208e-01  linmin: -3.627e-06  t[s]:    903.40
	FillingsUpdate:  mu: -0.177785342  nElectrons: 1122.000000
	SubspaceRotationAdjust: set factor to 0.0952
ElecMinimize: Iter:  18  F: -7040.497741535698879  |grad|_K:  4.990e-08  alpha:  4.276e-01  linmin:  7.162e-06  t[s]:    915.34
	FillingsUpdate:  mu: -0.177785766  nElectrons: 1122.000000
	SubspaceRotationAdjust: set factor to 0.105
ElecMinimize: Iter:  19  F: -7040.497741671278163  |grad|_K:  4.800e-08  alpha:  3.564e-01  linmin:  1.016e-05  t[s]:    927.32
	FillingsUpdate:  mu: -0.177788092  nElectrons: 1122.000000
	SubspaceRotationAdjust: set factor to 0.116
ElecMinimize: Iter:  20  F: -7040.497741834088629  |grad|_K:  4.466e-08  alpha:  4.634e-01  linmin: -1.700e-05  t[s]:    939.25
	FillingsUpdate:  mu: -0.177785763  nElectrons: 1122.000000
	SubspaceRotationAdjust: set factor to 0.119
ElecMinimize: Iter:  21  F: -7040.497741927766583  |grad|_K:  3.712e-08  alpha:  3.058e-01  linmin:  3.382e-07  t[s]:    951.19
	FillingsUpdate:  mu: -0.177785873  nElectrons: 1122.000000
	SubspaceRotationAdjust: set factor to 0.129
ElecMinimize: Iter:  22  F: -7040.497742019806537  |grad|_K:  3.293e-08  alpha:  4.359e-01  linmin: -1.453e-05  t[s]:    963.14
	FillingsUpdate:  mu: -0.177791432  nElectrons: 1122.000000
	SubspaceRotationAdjust: set factor to 0.121
ElecMinimize: Iter:  23  F: -7040.497742078942792  |grad|_K:  2.786e-08  alpha:  3.580e-01  linmin:  6.120e-06  t[s]:    975.07
	FillingsUpdate:  mu: -0.177786307  nElectrons: 1122.000000
	SubspaceRotationAdjust: set factor to 0.102
ElecMinimize: Iter:  24  F: -7040.497742112472224  |grad|_K:  2.274e-08  alpha:  2.825e-01  linmin:  1.508e-05  t[s]:    986.98
	FillingsUpdate:  mu: -0.177787338  nElectrons: 1122.000000
	SubspaceRotationAdjust: set factor to 0.0976
ElecMinimize: Iter:  25  F: -7040.497742135443332  |grad|_K:  1.753e-08  alpha:  2.933e-01  linmin: -3.798e-05  t[s]:    998.90
	FillingsUpdate:  mu: -0.177787816  nElectrons: 1122.000000
	SubspaceRotationAdjust: set factor to 0.0988
ElecMinimize: Iter:  26  F: -7040.497742151957027  |grad|_K:  1.501e-08  alpha:  3.560e-01  linmin:  9.759e-05  t[s]:   1010.86
	FillingsUpdate:  mu: -0.177787046  nElectrons: 1122.000000
	SubspaceRotationAdjust: set factor to 0.103
ElecMinimize: Iter:  27  F: -7040.497742162868235  |grad|_K:  1.055e-08  alpha:  3.140e-01  linmin: -3.042e-05  t[s]:   1022.82
	FillingsUpdate:  mu: -0.177786852  nElectrons: 1122.000000
	SubspaceRotationAdjust: set factor to 0.102
ElecMinimize: Iter:  28  F: -7040.497742169395679  |grad|_K:  9.768e-09  alpha:  3.804e-01  linmin: -2.601e-04  t[s]:   1034.87
	FillingsUpdate:  mu: -0.177787747  nElectrons: 1122.000000
	SubspaceRotationAdjust: set factor to 0.105
ElecMinimize: Iter:  29  F: -7040.497742174521591  |grad|_K:  8.180e-09  alpha:  3.133e-01  linmin: -1.309e-05  t[s]:   1046.81
ElecMinimize: Converged (|Delta F|<1.000000e-08 for 2 iters).
Setting wave functions to eigenvectors of Hamiltonian

# Ionic positions in cartesian coordinates:
ion Ni  32.181130469222218  -0.000028463333331   0.611327655000000 0
ion Ni   5.363545148055554  -0.000028463333331   5.974853827499990 0
ion Ni  32.181130469222218  -5.363543250499998   5.974853827499990 0
ion Ni   5.363545148055554  -5.363543250499998   0.611327655000000 0
ion Ni  32.181130469222218 -10.727058037666666   0.611327655000000 0
ion Ni  32.181130469222218 -21.454087611999999   0.611327655000000 0
ion Ni   5.363545148055554 -21.454087611999999   5.974853827499990 0
ion Ni   5.363545148055554 -10.727058037666666   5.974853827499990 0
ion Ni  32.181130469222218 -16.090572824833334   5.974853827499990 0
ion Ni  32.181130469222218 -26.817602399166638   5.974853827499990 0
ion Ni   5.363545148055554 -26.817602399166638   0.611327655000000 0
ion Ni   5.363545148055554 -16.090572824833334   0.611327655000000 0
ion Ni  10.727071320555538  -0.000028463333331   0.611327655000000 0
ion Ni  21.454100894888885  -0.000028463333331   0.611327655000000 0
ion Ni  21.454100894888885  -5.363543250499998   5.974853827499990 0
ion Ni  10.727071320555538  -5.363543250499998   5.974853827499990 0
ion Ni  16.090574722388887  -5.363543250499998   0.611327655000000 0
ion Ni  26.817604296722195  -5.363543250499998   0.611327655000000 0
ion Ni  26.817604296722195  -0.000028463333331   5.974853827499990 0
ion Ni  16.090574722388887  -0.000028463333331   5.974853827499990 0
ion Ni  10.727071320555538 -10.727058037666666   0.611327655000000 0
ion Ni  21.454100894888885 -21.454087611999999   0.611327655000000 0
ion Ni  26.817604296722195 -21.454087611999999   5.974853827499990 0
ion Ni  16.090574722388887 -10.727058037666666   5.974853827499990 0
ion Ni  21.454100894888885 -16.090572824833334   5.974853827499990 0
ion Ni  10.727071320555538 -26.817602399166638   5.974853827499990 0
ion Ni  16.090574722388887 -26.817602399166638   0.611327655000000 0
ion Ni  26.817604296722195 -16.090572824833334   0.611327655000000 0
ion Ni  10.727071320555538 -21.454087611999999   0.611327655000000 0
ion Ni  21.454100894888885 -10.727058037666666   0.611327655000000 0
ion Ni  26.817604296722195 -10.727058037666666   5.974853827499990 0
ion Ni  16.090574722388887 -21.454087611999999   5.974853827499990 0
ion Ni  21.454100894888885 -26.817602399166638   5.974853827499990 0
ion Ni  10.727071320555538 -16.090572824833334   5.974853827499990 0
ion Ni  16.090574722388887 -16.090572824833334   0.611327655000000 0
ion Ni  26.817604296722195 -26.817602399166638   0.611327655000000 0
ion S   4.232269668888878  -4.232271970733331   7.106125994099994 0
ion S  27.948891161222193 -27.948885064266641   4.843581660899996 0
ion S   1.131317225388885 -27.948885064266641   1.742599821599998 0
ion S   9.595784456055538  -4.232271970733331  10.207107833399991 0
ion S  27.948891161222193  -9.595786757899997  10.207107833399991 0
ion S   4.232269668888878  -1.131311128433331   1.742599821599998 0
ion S   9.595784456055538  -1.131311128433331   4.843581660899996 0
ion S   1.131317225388885  -9.595786757899997   7.106125994099994 0
ion S   4.232269668888878 -14.959301545066651   7.106125994099994 0
ion S  27.948891161222193 -17.221855489933304   4.843581660899996 0
ion S   1.131317225388885 -17.221855489933304   1.742599821599998 0
ion S   9.595784456055538 -14.959301545066651  10.207107833399991 0
ion S  27.948891161222193 -20.322816332233330  10.207107833399991 0
ion S   4.232269668888878 -22.585370277100001   1.742599821599998 0
ion S   9.595784456055538 -22.585370277100001   4.843581660899996 0
ion S   1.131317225388885 -20.322816332233330   7.106125994099994 0
ion S  14.959299243222206  -4.232271970733330   7.106125994099994 0
ion S  17.221861586888888 -27.948885064266641   4.843581660899996 0
ion S  17.221861586888888  -9.595786757899997  10.207107833399991 0
ion S  14.959299243222206  -1.131311128433331   1.742599821599998 0
ion S  20.322814030388887  -1.131311128433331   4.843581660899996 0
ion S  22.585376374055553  -9.595786757899997   7.106125994099994 0
ion S  22.585376374055553 -27.948885064266641   1.742599821599998 0
ion S  20.322814030388887  -4.232271970733330  10.207107833399991 0
ion S   4.232269668888878 -25.686331119399973   7.106125994099994 0
ion S  27.948891161222193  -6.494825915599991   4.843581660899996 0
ion S   1.131317225388885  -6.494825915599991   1.742599821599998 0
ion S   9.595784456055538 -25.686331119399973  10.207107833399991 0
ion S  27.948891161222193 -31.049845906566667  10.207107833399991 0
ion S   4.232269668888878 -11.858340702766652   1.742599821599998 0
ion S   9.595784456055538 -11.858340702766652   4.843581660899996 0
ion S   1.131317225388885 -31.049845906566667   7.106125994099994 0
ion S  25.686328817555527  -4.232271970733330   7.106125994099994 0
ion S   6.494832012555547 -27.948885064266641   4.843581660899996 0
ion S   6.494832012555547  -9.595786757899997  10.207107833399991 0
ion S  25.686328817555527  -1.131311128433331   1.742599821599998 0
ion S  31.049843604722220  -1.131311128433331   4.843581660899996 0
ion S  11.858346799722208  -9.595786757899997   7.106125994099994 0
ion S  11.858346799722208 -27.948885064266641   1.742599821599998 0
ion S  31.049843604722220  -4.232271970733330  10.207107833399991 0
ion S  14.959299243222206 -14.959301545066651   7.106125994099994 0
ion S  17.221861586888888 -17.221855489933304   4.843581660899996 0
ion S  22.585376374055553 -17.221855489933304   1.742599821599998 0
ion S  20.322814030388887 -14.959301545066651  10.207107833399991 0
ion S  17.221861586888888 -20.322816332233330  10.207107833399991 0
ion S  14.959299243222206 -22.585370277100001   1.742599821599998 0
ion S  20.322814030388887 -22.585370277100001   4.843581660899996 0
ion S  22.585376374055553 -20.322816332233330   7.106125994099994 0
ion S  14.959299243222206 -25.686331119399973   7.106125994099994 0
ion S  17.221861586888888  -6.494825915599991   4.843581660899996 0
ion S  22.585376374055553  -6.494825915599991   1.742599821599998 0
ion S  20.322814030388887 -25.686331119399973  10.207107833399991 0
ion S  17.221861586888888 -31.049845906566667  10.207107833399991 0
ion S  14.959299243222206 -11.858340702766652   1.742599821599998 0
ion S  20.322814030388887 -11.858340702766652   4.843581660899996 0
ion S  22.585376374055553 -31.049845906566667   7.106125994099994 0
ion S  25.686328817555527 -14.959301545066651   7.106125994099994 0
ion S   6.494832012555547 -17.221855489933304   4.843581660899996 0
ion S  11.858346799722208 -17.221855489933304   1.742599821599998 0
ion S  31.049843604722220 -14.959301545066651  10.207107833399991 0
ion S   6.494832012555547 -20.322816332233330  10.207107833399991 0
ion S  25.686328817555527 -22.585370277100001   1.742599821599998 0
ion S  31.049843604722220 -22.585370277100001   4.843581660899996 0
ion S  11.858346799722208 -20.322816332233330   7.106125994099994 0
ion S  25.686328817555527 -25.686331119399973   7.106125994099994 0
ion S   6.494832012555547  -6.494825915599991   4.843581660899996 0
ion S  11.858346799722208  -6.494825915599991   1.742599821599998 0
ion S  31.049843604722220 -25.686331119399973  10.207107833399991 0
ion S   6.494832012555547 -31.049845906566667  10.207107833399991 0
ion S  25.686328817555527 -11.858340702766652   1.742599821599998 0
ion S  31.049843604722220 -11.858340702766652   4.843581660899996 0
ion S  11.858346799722208 -31.049845906566667   7.106125994099994 0
ion S  15.161387353387914 -11.808203310266880  12.360962544753027 1
ion S  14.494215538775578 -22.039058449230492  15.913207800371989 1
ion S  17.565376696184273 -15.208054316935126  12.690002946225324 1
ion S  16.260783494739020 -23.163033335386338  12.728963692293728 1
ion Na  10.765139200667353 -20.699486463878326  12.659569886836543 1
ion Na  24.630533150439529 -23.792061724021291  12.252638123661148 1

# Forces in Cartesian coordinates:
force Ni   0.023467294576070   0.011657750482662   0.038496246966455 0
force Ni  -0.001836264838141   0.000430633203223   0.009866826739032 0
force Ni   0.001790589350775   0.000552944563456   0.009780646025067 0
force Ni  -0.023487489640498   0.011621043973522   0.038535506549780 0
force Ni   0.023531648757089   0.011620221051552   0.038562065882417 0
force Ni   0.023448004072037   0.011663331936837   0.038456076526104 0
force Ni  -0.001231024336615  -0.000644603863159   0.008023706204178 0
force Ni  -0.001550416355819   0.000578489093489   0.009930041979527 0
force Ni   0.001204541559618   0.000420760581604   0.010382785301556 0
force Ni   0.001575879712143   0.000214131891427   0.009253941011379 0
force Ni  -0.023446095395088   0.011735514146264   0.038475951192781 0
force Ni  -0.023534010155292   0.011638010394842   0.038560443678858 0
force Ni   0.023542569783175   0.011589402211313   0.038481711266686 0
force Ni   0.023488376815342   0.011643628216973   0.038574432167604 0
force Ni   0.001123660858946   0.000578571183848   0.010509040141203 0
force Ni   0.001689040095443   0.000443752390661   0.009741908803006 0
force Ni  -0.023719039115181   0.011371556638795   0.037710006260598 0
force Ni  -0.023558803297813   0.011575174903964   0.038428639840439 0
force Ni  -0.002004990313460   0.000465057844294   0.009396088596569 0
force Ni  -0.001905113527558   0.000583557833564   0.009736825417980 0
force Ni   0.023871421657229   0.011566372746157   0.038362749567658 0
force Ni   0.023708621798372   0.012367990814330   0.038014738095313 0
force Ni  -0.001944657528610  -0.000097952564317   0.007818391121766 0
force Ni  -0.004379199413470  -0.003383566635343  -0.001745891390634 0
force Ni  -0.003192007833164  -0.007753899536329  -0.006069190269742 0
force Ni   0.002523792092011   0.000385876680607   0.008710036775302 0
force Ni  -0.023559225619003   0.012043691912980   0.038409659580254 0
force Ni  -0.024015273481349   0.011713877794684   0.038013391943320 0
force Ni   0.023882216644921   0.011913475968526   0.038546620331389 0
force Ni   0.023614108391818   0.011380226819340   0.037857513046874 0
force Ni  -0.001121626010051   0.000880473426808   0.010206001196371 0
force Ni  -0.005027609880111  -0.005425420186702   0.001007612158652 0
force Ni   0.003548681010025  -0.001237337917460   0.006682298872275 0
force Ni   0.002106052024641   0.000860404234567   0.009832906807478 0
force Ni  -0.023839323944042   0.011261487771334   0.036702638676698 0
force Ni  -0.023662894048077   0.011878302563366   0.038612473404710 0
force S  -0.004569767403838   0.004133056981368   0.003830908977426 0
force S   0.005397878686895  -0.002863382663102  -0.011098424074676 0
force S  -0.002776115981577  -0.006951742380821  -0.019677983032966 0
force S  -0.003926657218114  -0.008572098632225  -0.020957488890578 0
force S   0.004122965284049  -0.008618767050193  -0.020996902135110 0
force S   0.002585895625797  -0.006938221771509  -0.019755540098233 0
force S  -0.003248132322653  -0.001141217677238  -0.011362553199322 0
force S   0.004560504243195   0.004097666193818   0.003817325541073 0
force S  -0.004505157877006   0.004152063668209   0.003390639734319 0
force S   0.001749996563992  -0.000764618252853  -0.010455003228779 0
force S  -0.002671573548099  -0.006989061935620  -0.019836711539413 0
force S  -0.001297870429908  -0.010253717478560  -0.016999099056003 0
force S   0.002219540547665  -0.008907534565636  -0.016960211292330 0
force S   0.002682450799679  -0.006998217342265  -0.019526103632475 0
force S  -0.004747413722231  -0.002638697302026  -0.011205651271279 0
force S   0.004365899709726   0.003422682402509   0.002317990054061 0
force S  -0.003984161052836   0.005031127388153   0.003490663104629 0
force S   0.003694039974891  -0.000975714639714  -0.010490479140032 0
force S  -0.005437225488724   0.001818074541011  -0.007700575306723 0
force S   0.002491014680445  -0.006776272914491  -0.019907591925134 0
force S  -0.003143960537681  -0.001104133282686  -0.011312663982384 0
force S   0.005455508171912   0.003293147078842   0.001075328532466 0
force S  -0.002679530615549  -0.006933566922172  -0.020137088499068 0
force S   0.001082538767275  -0.000978943744956  -0.021347480558660 0
force S  -0.004547227915725   0.003652502372718   0.003155848923208 0
force S   0.003366686758145  -0.001060711810878  -0.011510281034019 0
force S  -0.002565418456991  -0.006948096257934  -0.019688932967231 0
force S  -0.002207994870846  -0.008784307722187  -0.018619028599899 0
force S   0.003435316981391  -0.008075826563237  -0.020249827681076 0
force S   0.002479479170954  -0.006897327692379  -0.019812874423883 0
force S  -0.002857020894142  -0.000181638147497  -0.011001607794035 0
force S   0.004692248235278   0.003998449732997   0.003737505745793 0
force S  -0.004746857202080   0.004177111181680   0.004155977920657 0
force S   0.002981646043747  -0.000766350644220  -0.011083263603269 0
force S   0.002876155827471  -0.006724588776657  -0.021000155414324 0
force S   0.002640306618749  -0.006864127095035  -0.019624898782524 0
force S  -0.003198376173280  -0.000916034873511  -0.011314757746700 0
force S   0.002579092921231   0.004511577050069   0.000011862443561 0
force S  -0.002775025464546  -0.006808102881498  -0.019512512998196 0
force S  -0.003703737375198  -0.008843803825110  -0.021228909181815 0
force S  -0.008475501424520   0.003641246401324  -0.006338912035933 0
force S   0.003656242808712  -0.000570883333435  -0.009475751912297 0
force S  -0.000250630073462  -0.008259713618304  -0.022716660238434 0
force S   0.011851492184581   0.008908726860003   0.012820350319749 0
force S  -0.009247639617917  -0.009134368807066  -0.001380064193237 0
force S   0.002149968235160  -0.007623247058445  -0.021223190663412 0
force S  -0.004556747176308  -0.001544209459120  -0.010710011990936 0
force S   0.006209136677638   0.004782279597821   0.001044492878608 0
force S  -0.005640769099803   0.002651636941553   0.000521456539946 0
force S   0.002810562665610  -0.001058435458707  -0.010829461633142 0
force S  -0.002393098470653  -0.006620246869727  -0.019949986838202 0
force S   0.003139166416785  -0.014955003908951  -0.018564798592199 0
force S   0.002809283236008  -0.011019953571905  -0.021500232987629 0
force S   0.001788101631428  -0.007418341494809  -0.020746678798718 0
force S  -0.002739668831637  -0.000014953131599  -0.010046534224127 0
force S   0.004060983285027   0.004679954780835   0.003563650821409 0
force S  -0.003181306270807   0.004557645895926   0.002097036130227 0
force S   0.003003330888977  -0.000155319703741  -0.011833162385901 0
force S  -0.002548241103551  -0.007007857328629  -0.019955176877503 0
force S  -0.002330278598857  -0.005363805908508  -0.021035968909973 0
force S  -0.006908328767263  -0.005895028598967  -0.019908948080959 0
force S   0.002852829536196  -0.006942259912197  -0.019820684387007 0
force S  -0.002700118755361  -0.000074971030463  -0.010990616364178 0
force S   0.007066554928513   0.006050297195226  -0.001435232338609 0
force S  -0.007270686901924   0.004358272802421  -0.001847014189137 0
force S   0.003005016431749  -0.000951858689703  -0.011394498631307 0
force S  -0.002416753113487  -0.006711186599321  -0.019751673891282 0
force S  -0.003651880320264  -0.008668038563202  -0.018776722281665 0
force S   0.003117760291525  -0.009988340518850  -0.021448118139299 0
force S   0.002466308103381  -0.007025204648154  -0.020066128475084 0
force S  -0.003042182199761  -0.000934476533393  -0.011384947354091 0
force S   0.004396520069342   0.004020965534762   0.003793087788771 0
force S   0.005125291767738  -0.001164435178964   0.002260542917510 1
force S   0.006446802307832   0.002104075876528  -0.007939748303941 1
force S   0.001014898267972  -0.004591369572065   0.000684562948888 1
force S  -0.001926831298596  -0.002322202435922   0.004231604046144 1
force Na   0.002254658459044   0.001411890534693   0.000172335152524 1
force Na   0.003182307564847  -0.000407191952760   0.001207333306269 1

# Energy components:
   Eewald =   -18836.0980931307494757
       EH =   -12698.5459796543837001
     Eloc =    23266.5892731272942910
      Enl =      912.6934897032016352
      Exc =     -970.5096488518770457
 Exc_core =      148.7859882264217788
       KE =     1137.5985798370695647
-------------------------------------
     Etot =    -7039.4863907430226391
       TS =        1.0113514314986345
-------------------------------------
        F =    -7040.4977421745215906

IonicMinimize: Iter:   1  F: -7040.497742174521591  |grad|_K:  3.417e-03  alpha:  4.633e+00  linmin: -5.461e-03  t[s]:   1050.64

#--- Lowdin population analysis ---
# oxidation-state Ni -0.002 -0.448 -0.449 -0.002 -0.002 -0.002 -0.441 -0.448 -0.448 -0.446 -0.003 -0.002 -0.002 -0.001 -0.454 -0.449 +0.000 -0.001 -0.448 -0.447 -0.002 -0.001 -0.450 -0.465 -0.460 -0.444 -0.003 -0.001 -0.002 -0.000 -0.446 -0.456 -0.447 -0.446 +0.002 -0.002
# oxidation-state S +0.318 +0.446 +0.085 -0.034 -0.033 +0.085 +0.445 +0.318 +0.316 +0.449 +0.084 -0.128 -0.204 +0.086 +0.444 +0.316 +0.309 +0.444 +0.125 +0.084 +0.446 +0.284 +0.085 -0.072 +0.316 +0.444 +0.085 -0.136 -0.064 +0.085 +0.446 +0.317 +0.318 +0.444 -0.035 +0.085 +0.444 +0.297 +0.086 -0.026 +0.256 +0.423 +0.082 +0.047 +0.030 +0.083 +0.438 +0.256 +0.296 +0.428 +0.084 -0.248 -0.038 +0.083 +0.430 +0.318 +0.292 +0.443 +0.084 -0.034 -0.188 +0.086 +0.445 +0.245 +0.251 +0.445 +0.086 -0.086 -0.028 +0.084 +0.445 +0.316 +0.197 -0.267 +0.219 +0.330
# oxidation-state Na +0.699 +0.739


-------- Electronic minimization -----------
	FillingsUpdate:  mu: -0.177711403  nElectrons: 1122.000000
ElecMinimize: Iter:   0  F: -7040.473414440436500  |grad|_K:  1.974e-05  alpha:  1.000e+00
	FillingsUpdate:  mu: -0.178142662  nElectrons: 1122.000000
	SubspaceRotationAdjust: set factor to 0.11
ElecMinimize: Iter:   1  F: -7040.492912896997041  |grad|_K:  6.591e-06  alpha:  3.288e-01  linmin:  3.310e-04  t[s]:   1072.30
	FillingsUpdate:  mu: -0.178092176  nElectrons: 1122.000000
	SubspaceRotationAdjust: set factor to 0.104
ElecMinimize: Iter:   2  F: -7040.496580462031488  |grad|_K:  4.832e-06  alpha:  5.544e-01  linmin: -1.375e-05  t[s]:   1084.16
	FillingsUpdate:  mu: -0.178118343  nElectrons: 1122.000000
	SubspaceRotationAdjust: set factor to 0.0816
ElecMinimize: Iter:   3  F: -7040.497222317019805  |grad|_K:  2.921e-06  alpha:  1.801e-01  linmin:  8.044e-07  t[s]:   1096.08
	FillingsUpdate:  mu: -0.177983147  nElectrons: 1122.000000
	SubspaceRotationAdjust: set factor to 0.0932
ElecMinimize: Iter:   4  F: -7040.497744799829889  |grad|_K:  2.114e-06  alpha:  4.011e-01  linmin: -4.713e-06  t[s]:   1107.96
	FillingsUpdate:  mu: -0.177773723  nElectrons: 1122.000000
	SubspaceRotationAdjust: set factor to 0.0992
ElecMinimize: Iter:   5  F: -7040.497988393703054  |grad|_K:  1.550e-06  alpha:  3.571e-01  linmin:  6.685e-08  t[s]:   1119.85
	FillingsUpdate:  mu: -0.177763008  nElectrons: 1122.000000
	SubspaceRotationAdjust: set factor to 0.106
ElecMinimize: Iter:   6  F: -7040.498110986822212  |grad|_K:  1.378e-06  alpha:  3.344e-01  linmin:  8.997e-08  t[s]:   1131.74
	FillingsUpdate:  mu: -0.177704125  nElectrons: 1122.000000
	SubspaceRotationAdjust: set factor to 0.125
ElecMinimize: Iter:   7  F: -7040.498246347152417  |grad|_K:  9.823e-07  alpha:  4.674e-01  linmin: -3.348e-07  t[s]:   1143.65
	FillingsUpdate:  mu: -0.177556057  nElectrons: 1122.000000
	SubspaceRotationAdjust: set factor to 0.135
ElecMinimize: Iter:   8  F: -7040.498337542060654  |grad|_K:  1.130e-06  alpha:  6.192e-01  linmin: -1.430e-08  t[s]:   1155.54
	FillingsUpdate:  mu: -0.177716599  nElectrons: 1122.000000
	SubspaceRotationAdjust: set factor to 0.122
ElecMinimize: Iter:   9  F: -7040.498392537425389  |grad|_K:  9.994e-07  alpha:  2.822e-01  linmin: -2.392e-07  t[s]:   1167.46
	FillingsUpdate:  mu: -0.177649758  nElectrons: 1122.000000
	SubspaceRotationAdjust: set factor to 0.113
ElecMinimize: Iter:  10  F: -7040.498436631194636  |grad|_K:  7.568e-07  alpha:  2.893e-01  linmin: -2.775e-07  t[s]:   1179.39
	FillingsUpdate:  mu: -0.177614922  nElectrons: 1122.000000
	SubspaceRotationAdjust: set factor to 0.104
ElecMinimize: Iter:  11  F: -7040.498479100699114  |grad|_K:  9.006e-07  alpha:  4.859e-01  linmin: -1.896e-07  t[s]:   1191.35
	FillingsUpdate:  mu: -0.177617039  nElectrons: 1122.000000
	SubspaceRotationAdjust: set factor to 0.0949
ElecMinimize: Iter:  12  F: -7040.498510811040433  |grad|_K:  5.210e-07  alpha:  2.562e-01  linmin:  5.200e-08  t[s]:   1203.25
	FillingsUpdate:  mu: -0.177718051  nElectrons: 1122.000000
	SubspaceRotationAdjust: set factor to 0.0893
ElecMinimize: Iter:  13  F: -7040.498528068842461  |grad|_K:  5.003e-07  alpha:  4.167e-01  linmin: -1.308e-07  t[s]:   1215.19
	FillingsUpdate:  mu: -0.177634494  nElectrons: 1122.000000
	SubspaceRotationAdjust: set factor to 0.09
ElecMinimize: Iter:  14  F: -7040.498538736851515  |grad|_K:  3.086e-07  alpha:  2.793e-01  linmin: -1.321e-08  t[s]:   1227.05
	FillingsUpdate:  mu: -0.177642153  nElectrons: 1122.000000
	SubspaceRotationAdjust: set factor to 0.0879
ElecMinimize: Iter:  15  F: -7040.498544892904647  |grad|_K:  2.632e-07  alpha:  4.237e-01  linmin:  2.367e-07  t[s]:   1238.92
	FillingsUpdate:  mu: -0.177665653  nElectrons: 1122.000000
	SubspaceRotationAdjust: set factor to 0.0884
ElecMinimize: Iter:  16  F: -7040.498547890173541  |grad|_K:  1.879e-07  alpha:  2.836e-01  linmin: -2.961e-08  t[s]:   1250.79
	FillingsUpdate:  mu: -0.177634988  nElectrons: 1122.000000
	SubspaceRotationAdjust: set factor to 0.0817
ElecMinimize: Iter:  17  F: -7040.498549504456605  |grad|_K:  1.379e-07  alpha:  2.994e-01  linmin:  7.312e-08  t[s]:   1262.65
	FillingsUpdate:  mu: -0.177651228  nElectrons: 1122.000000
	SubspaceRotationAdjust: set factor to 0.0968
ElecMinimize: Iter:  18  F: -7040.498550767852976  |grad|_K:  1.146e-07  alpha:  4.357e-01  linmin:  1.017e-06  t[s]:   1274.50
	FillingsUpdate:  mu: -0.177650215  nElectrons: 1122.000000
	SubspaceRotationAdjust: set factor to 0.1
ElecMinimize: Iter:  19  F: -7040.498551408476487  |grad|_K:  9.029e-08  alpha:  3.200e-01  linmin:  6.360e-07  t[s]:   1286.36
	FillingsUpdate:  mu: -0.177644477  nElectrons: 1122.000000
	SubspaceRotationAdjust: set factor to 0.107
ElecMinimize: Iter:  20  F: -7040.498551939819663  |grad|_K:  9.060e-08  alpha:  4.274e-01  linmin:  1.039e-06  t[s]:   1298.21
	FillingsUpdate:  mu: -0.177655874  nElectrons: 1122.000000
	SubspaceRotationAdjust: set factor to 0.106
ElecMinimize: Iter:  21  F: -7040.498552343685333  |grad|_K:  7.196e-08  alpha:  3.227e-01  linmin:  1.383e-06  t[s]:   1310.12
	FillingsUpdate:  mu: -0.177653676  nElectrons: 1122.000000
	SubspaceRotationAdjust: set factor to 0.105
ElecMinimize: Iter:  22  F: -7040.498552614887558  |grad|_K:  6.305e-08  alpha:  3.432e-01  linmin: -4.520e-08  t[s]:   1321.99
	FillingsUpdate:  mu: -0.177653612  nElectrons: 1122.000000
	SubspaceRotationAdjust: set factor to 0.103
ElecMinimize: Iter:  23  F: -7040.498552830361405  |grad|_K:  5.249e-08  alpha:  3.549e-01  linmin: -2.515e-06  t[s]:   1333.83
[...]
	FillingsUpdate:  mu: -0.177156155  nElectrons: 1122.000000
	SubspaceRotationAdjust: set factor to 0.106
ElecMinimize: Iter:   8  F: -7040.506457397414124  |grad|_K:  6.497e-08  alpha:  5.085e-01  linmin:  9.901e-06  t[s]:  33729.99
	FillingsUpdate:  mu: -0.177152752  nElectrons: 1122.000000
	SubspaceRotationAdjust: set factor to 0.102
ElecMinimize: Iter:   9  F: -7040.506457602918999  |grad|_K:  5.303e-08  alpha:  3.194e-01  linmin:  1.937e-06  t[s]:  33741.84
	FillingsUpdate:  mu: -0.177156251  nElectrons: 1122.000000
	SubspaceRotationAdjust: set factor to 0.1
ElecMinimize: Iter:  10  F: -7040.506457773729380  |grad|_K:  4.971e-08  alpha:  3.981e-01  linmin:  4.123e-06  t[s]:  33753.67
	FillingsUpdate:  mu: -0.177155732  nElectrons: 1122.000000
	SubspaceRotationAdjust: set factor to 0.0806
ElecMinimize: Iter:  11  F: -7040.506457893444349  |grad|_K:  2.917e-08  alpha:  3.177e-01  linmin: -4.404e-06  t[s]:  33765.53
	FillingsUpdate:  mu: -0.177151152  nElectrons: 1122.000000
	SubspaceRotationAdjust: set factor to 0.0689
ElecMinimize: Iter:  12  F: -7040.506457948904426  |grad|_K:  2.589e-08  alpha:  4.282e-01  linmin:  2.891e-05  t[s]:  33777.35
	FillingsUpdate:  mu: -0.177156178  nElectrons: 1122.000000
	SubspaceRotationAdjust: set factor to 0.0699
ElecMinimize: Iter:  13  F: -7040.506457977151513  |grad|_K:  1.852e-08  alpha:  2.788e-01  linmin:  2.458e-06  t[s]:  33789.21
	FillingsUpdate:  mu: -0.177155279  nElectrons: 1122.000000
	SubspaceRotationAdjust: set factor to 0.0722
ElecMinimize: Iter:  14  F: -7040.506457996954850  |grad|_K:  1.272e-08  alpha:  3.874e-01  linmin:  4.900e-04  t[s]:  33801.05
	FillingsUpdate:  mu: -0.177154620  nElectrons: 1122.000000
	SubspaceRotationAdjust: set factor to 0.0764
ElecMinimize: Iter:  15  F: -7040.506458004215347  |grad|_K:  9.967e-09  alpha:  3.062e-01  linmin: -7.032e-05  t[s]:  33812.94
	FillingsUpdate:  mu: -0.177155528  nElectrons: 1122.000000
	SubspaceRotationAdjust: set factor to 0.0736
ElecMinimize: Iter:  16  F: -7040.506458009691414  |grad|_K:  6.639e-09  alpha:  3.650e-01  linmin:  1.766e-04  t[s]:  33824.81
ElecMinimize: Converged (|Delta F|<1.000000e-08 for 2 iters).
Setting wave functions to eigenvectors of Hamiltonian

# Ionic positions in cartesian coordinates:
ion Ni  32.181130469222218  -0.000028463333331   0.611327655000000 0
ion Ni   5.363545148055554  -0.000028463333331   5.974853827499990 0
ion Ni  32.181130469222218  -5.363543250499998   5.974853827499990 0
ion Ni   5.363545148055554  -5.363543250499998   0.611327655000000 0
ion Ni  32.181130469222218 -10.727058037666666   0.611327655000000 0
ion Ni  32.181130469222218 -21.454087611999999   0.611327655000000 0
ion Ni   5.363545148055554 -21.454087611999999   5.974853827499990 0
ion Ni   5.363545148055554 -10.727058037666666   5.974853827499990 0
ion Ni  32.181130469222218 -16.090572824833334   5.974853827499990 0
ion Ni  32.181130469222218 -26.817602399166638   5.974853827499990 0
ion Ni   5.363545148055554 -26.817602399166638   0.611327655000000 0
ion Ni   5.363545148055554 -16.090572824833334   0.611327655000000 0
ion Ni  10.727071320555538  -0.000028463333331   0.611327655000000 0
ion Ni  21.454100894888885  -0.000028463333331   0.611327655000000 0
ion Ni  21.454100894888885  -5.363543250499998   5.974853827499990 0
ion Ni  10.727071320555538  -5.363543250499998   5.974853827499990 0
ion Ni  16.090574722388887  -5.363543250499998   0.611327655000000 0
ion Ni  26.817604296722195  -5.363543250499998   0.611327655000000 0
ion Ni  26.817604296722195  -0.000028463333331   5.974853827499990 0
ion Ni  16.090574722388887  -0.000028463333331   5.974853827499990 0
ion Ni  10.727071320555538 -10.727058037666666   0.611327655000000 0
ion Ni  21.454100894888885 -21.454087611999999   0.611327655000000 0
ion Ni  26.817604296722195 -21.454087611999999   5.974853827499990 0
ion Ni  16.090574722388887 -10.727058037666666   5.974853827499990 0
ion Ni  21.454100894888885 -16.090572824833334   5.974853827499990 0
ion Ni  10.727071320555538 -26.817602399166638   5.974853827499990 0
ion Ni  16.090574722388887 -26.817602399166638   0.611327655000000 0
ion Ni  26.817604296722195 -16.090572824833334   0.611327655000000 0
ion Ni  10.727071320555538 -21.454087611999999   0.611327655000000 0
ion Ni  21.454100894888885 -10.727058037666666   0.611327655000000 0
ion Ni  26.817604296722195 -10.727058037666666   5.974853827499990 0
ion Ni  16.090574722388887 -21.454087611999999   5.974853827499990 0
ion Ni  21.454100894888885 -26.817602399166638   5.974853827499990 0
ion Ni  10.727071320555538 -16.090572824833334   5.974853827499990 0
ion Ni  16.090574722388887 -16.090572824833334   0.611327655000000 0
ion Ni  26.817604296722195 -26.817602399166638   0.611327655000000 0
ion S   4.232269668888878  -4.232271970733331   7.106125994099994 0
ion S  27.948891161222193 -27.948885064266641   4.843581660899996 0
ion S   1.131317225388885 -27.948885064266641   1.742599821599998 0
ion S   9.595784456055538  -4.232271970733331  10.207107833399991 0
ion S  27.948891161222193  -9.595786757899997  10.207107833399991 0
ion S   4.232269668888878  -1.131311128433331   1.742599821599998 0
ion S   9.595784456055538  -1.131311128433331   4.843581660899996 0
ion S   1.131317225388885  -9.595786757899997   7.106125994099994 0
ion S   4.232269668888878 -14.959301545066651   7.106125994099994 0
ion S  27.948891161222193 -17.221855489933304   4.843581660899996 0
ion S   1.131317225388885 -17.221855489933304   1.742599821599998 0
ion S   9.595784456055538 -14.959301545066651  10.207107833399991 0
ion S  27.948891161222193 -20.322816332233330  10.207107833399991 0
ion S   4.232269668888878 -22.585370277100001   1.742599821599998 0
ion S   9.595784456055538 -22.585370277100001   4.843581660899996 0
ion S   1.131317225388885 -20.322816332233330   7.106125994099994 0
ion S  14.959299243222206  -4.232271970733330   7.106125994099994 0
ion S  17.221861586888888 -27.948885064266641   4.843581660899996 0
ion S  17.221861586888888  -9.595786757899997  10.207107833399991 0
ion S  14.959299243222206  -1.131311128433331   1.742599821599998 0
ion S  20.322814030388887  -1.131311128433331   4.843581660899996 0
ion S  22.585376374055553  -9.595786757899997   7.106125994099994 0
ion S  22.585376374055553 -27.948885064266641   1.742599821599998 0
ion S  20.322814030388887  -4.232271970733330  10.207107833399991 0
ion S   4.232269668888878 -25.686331119399973   7.106125994099994 0
ion S  27.948891161222193  -6.494825915599991   4.843581660899996 0
ion S   1.131317225388885  -6.494825915599991   1.742599821599998 0
ion S   9.595784456055538 -25.686331119399973  10.207107833399991 0
ion S  27.948891161222193 -31.049845906566667  10.207107833399991 0
ion S   4.232269668888878 -11.858340702766652   1.742599821599998 0
ion S   9.595784456055538 -11.858340702766652   4.843581660899996 0
ion S   1.131317225388885 -31.049845906566667   7.106125994099994 0
ion S  25.686328817555527  -4.232271970733330   7.106125994099994 0
ion S   6.494832012555547 -27.948885064266641   4.843581660899996 0
ion S   6.494832012555547  -9.595786757899997  10.207107833399991 0
ion S  25.686328817555527  -1.131311128433331   1.742599821599998 0
ion S  31.049843604722220  -1.131311128433331   4.843581660899996 0
ion S  11.858346799722208  -9.595786757899997   7.106125994099994 0
ion S  11.858346799722208 -27.948885064266641   1.742599821599998 0
ion S  31.049843604722220  -4.232271970733330  10.207107833399991 0
ion S  14.959299243222206 -14.959301545066651   7.106125994099994 0
ion S  17.221861586888888 -17.221855489933304   4.843581660899996 0
ion S  22.585376374055553 -17.221855489933304   1.742599821599998 0
ion S  20.322814030388887 -14.959301545066651  10.207107833399991 0
ion S  17.221861586888888 -20.322816332233330  10.207107833399991 0
ion S  14.959299243222206 -22.585370277100001   1.742599821599998 0
ion S  20.322814030388887 -22.585370277100001   4.843581660899996 0
ion S  22.585376374055553 -20.322816332233330   7.106125994099994 0
ion S  14.959299243222206 -25.686331119399973   7.106125994099994 0
ion S  17.221861586888888  -6.494825915599991   4.843581660899996 0
ion S  22.585376374055553  -6.494825915599991   1.742599821599998 0
ion S  20.322814030388887 -25.686331119399973  10.207107833399991 0
ion S  17.221861586888888 -31.049845906566667  10.207107833399991 0
ion S  14.959299243222206 -11.858340702766652   1.742599821599998 0
ion S  20.322814030388887 -11.858340702766652   4.843581660899996 0
ion S  22.585376374055553 -31.049845906566667   7.106125994099994 0
ion S  25.686328817555527 -14.959301545066651   7.106125994099994 0
ion S   6.494832012555547 -17.221855489933304   4.843581660899996 0
ion S  11.858346799722208 -17.221855489933304   1.742599821599998 0
ion S  31.049843604722220 -14.959301545066651  10.207107833399991 0
ion S   6.494832012555547 -20.322816332233330  10.207107833399991 0
ion S  25.686328817555527 -22.585370277100001   1.742599821599998 0
ion S  31.049843604722220 -22.585370277100001   4.843581660899996 0
ion S  11.858346799722208 -20.322816332233330   7.106125994099994 0
ion S  25.686328817555527 -25.686331119399973   7.106125994099994 0
ion S   6.494832012555547  -6.494825915599991   4.843581660899996 0
ion S  11.858346799722208  -6.494825915599991   1.742599821599998 0
ion S  31.049843604722220 -25.686331119399973  10.207107833399991 0
ion S   6.494832012555547 -31.049845906566667  10.207107833399991 0
ion S  25.686328817555527 -11.858340702766652   1.742599821599998 0
ion S  31.049843604722220 -11.858340702766652   4.843581660899996 0
ion S  11.858346799722208 -31.049845906566667   7.106125994099994 0
ion S  15.471942061476630 -11.763866191409681  12.648925931294533 1
ion S  14.817169991503215 -21.603511999306285  15.796519619413596 1
ion S  17.710042005525114 -15.303126508907557  12.800843096220991 1
ion S  16.130943597906384 -23.159479201964160  12.643258338011618 1
ion Na  11.049462915752370 -19.680835703965929  12.598608303907589 1
ion Na  25.726973749507764 -26.476880040626188  12.246901125920868 1

# Forces in Cartesian coordinates:
force Ni   0.023475147038960   0.011694443688833   0.038466047991535 0
force Ni  -0.001822696169864   0.000493052754231   0.009840624581633 0
force Ni   0.001881475218357   0.000358326220091   0.009888991777251 0
force Ni  -0.023472199002871   0.011635879846071   0.038542340550028 0
force Ni   0.023526084854805   0.011625607172912   0.038569799565978 0
force Ni   0.023468505955309   0.011633620920205   0.038503147196620 0
force Ni  -0.001188613248047  -0.000459756053806   0.008098231842062 0
force Ni  -0.001428745546879   0.000530779005354   0.010108781809326 0
force Ni   0.001438636609271   0.000636496217571   0.010082610027963 0
force Ni   0.001280319231607  -0.000433923877889   0.008576940528785 0
force Ni  -0.023453213576976   0.011712254125682   0.038489098093466 0
force Ni  -0.023526222273821   0.011657261907312   0.038546328592031 0
force Ni   0.023512281602163   0.011582358901948   0.038479350240690 0
force Ni   0.023475648411087   0.011674040022456   0.038636692010615 0
force Ni   0.001202312613145   0.000545978473170   0.010501910131860 0
force Ni   0.001652537191184   0.000517520610029   0.009770534006932 0
force Ni  -0.023769072128561   0.011334373736587   0.037624586983195 0
force Ni  -0.023563809481882   0.011589311243667   0.038442289453460 0
force Ni  -0.003113868774507   0.000316516633753   0.008129632351057 0
force Ni  -0.001798033072715   0.000722828785549   0.009678339001792 0
force Ni   0.023912590088669   0.011553167095698   0.038317209413391 0
force Ni   0.023675746990610   0.012254885640833   0.037996112916384 0
force Ni  -0.001441619925374   0.000994088013806   0.009625107901009 0
force Ni  -0.005870737596927  -0.004528750596526  -0.000726519939789 0
force Ni  -0.002710752965229  -0.008491547527147  -0.006816884321650 0
force Ni   0.002163992694525   0.000418418170202   0.009327170790435 0
force Ni  -0.023576029259671   0.011973888405300   0.038491205980578 0
force Ni  -0.024070978938662   0.011750421519792   0.038013032986703 0
force Ni   0.023870216494495   0.011914872669222   0.038554762113902 0
force Ni   0.023609631635168   0.011381072495361   0.037768283335763 0
force Ni  -0.001115286439630   0.000887708087154   0.010172752618471 0
force Ni  -0.004251422715019  -0.005398447084524   0.001274600489405 0
force Ni   0.002392209631250  -0.001354311873179   0.006955406201113 0
force Ni   0.002156291435645   0.000338118577265   0.009004441997959 0
force Ni  -0.023862836305967   0.011368933216555   0.036798150681126 0
force Ni  -0.023749767462976   0.011993640227933   0.038789812098988 0
force S  -0.004601139562111   0.004155176019280   0.003839342835976 0
force S   0.005717454171610  -0.003369773390475  -0.011754060198475 0
force S  -0.002714046316338  -0.006949298796377  -0.019565272829375 0
force S  -0.003936214642062  -0.008619684479750  -0.020952717016378 0
force S   0.004116119822502  -0.008386945069367  -0.020977496010204 0
force S   0.002626964258349  -0.006968925706161  -0.019783341274570 0
force S  -0.003228319461359  -0.001074097584591  -0.011371922082004 0
force S   0.004555605235868   0.004087780613045   0.003843824658631 0
force S  -0.004709955373050   0.004070712890019   0.003248091462024 0
force S   0.001752952640214  -0.000914284150510  -0.010227147688555 0
force S  -0.002644173678837  -0.006979124454244  -0.019856955791948 0
force S  -0.000633181293028  -0.008755430472088  -0.016621635124436 0
force S   0.001975558084781  -0.010228097121176  -0.018742615634673 0
force S   0.002661283786294  -0.006976989128739  -0.019482609939668 0
force S  -0.005020340763154  -0.002739659153131  -0.010817316373146 0
force S   0.003924547770592   0.003773207881535   0.002767047229223 0
force S  -0.004096324332641   0.004947196027861   0.003601616380120 0
force S   0.003990941014690  -0.001048860163706  -0.010759380113160 0
force S  -0.002784284477826  -0.000158396172247  -0.004068190163875 0
force S   0.002517482055876  -0.006801952630495  -0.019847474061075 0
force S  -0.003420721759854  -0.001313274155946  -0.011419851413802 0
force S   0.005602735141623   0.003190512855807   0.000967607668849 0
force S  -0.002566904390862  -0.006922422451133  -0.020290712560340 0
force S   0.001096321924621  -0.001265935431342  -0.021270703786498 0
force S  -0.004293220392264   0.003570891153122   0.002975303557794 0
force S   0.003405189031792  -0.001115904316813  -0.011443380343041 0
force S  -0.002563510460485  -0.006911147327531  -0.019720413547948 0
force S  -0.002331307031176  -0.007760894375431  -0.018944030611100 0
force S   0.001882808476346  -0.007252874453768  -0.017107524119499 0
force S   0.002504213939338  -0.006909642962090  -0.019801506319545 0
force S  -0.002653892035522  -0.000230732375257  -0.011114356034018 0
force S   0.004841727411203   0.003657009108794   0.003328873057626 0
force S  -0.004579648210078   0.004215668108894   0.004074739315916 0
force S   0.003067468127061  -0.000615881572245  -0.011017912428066 0
force S   0.002388024015773  -0.005850172689985  -0.021005694959859 0
force S   0.002719430947763  -0.006878461617510  -0.019423069884830 0
force S  -0.002926339671238  -0.000814743929234  -0.010982074862871 0
force S   0.002924511540255   0.004003864666325   0.000747462215836 0
force S  -0.002743939343382  -0.006813259592933  -0.019632296209047 0
force S  -0.002862120968083  -0.010709090329237  -0.021609351635801 0
force S  -0.008482228054642   0.003979676703172  -0.004608653077753 0
force S   0.003809107788225  -0.000328142719726  -0.009682511276834 0
force S  -0.000200819734703  -0.008280587044313  -0.022703286381667 0
force S   0.015901601789911   0.007940744138952   0.009969639381267 0
force S  -0.008000172162393  -0.009476268331341  -0.007589169241215 0
force S   0.002224358108729  -0.007382654689572  -0.020890641249702 0
force S  -0.003655781323138  -0.000931091681329  -0.010802218873874 0
force S   0.005510471002740   0.004152982660001   0.001505614822464 0
force S  -0.005813772050057   0.002759811050457   0.000312975908238 0
force S   0.002905051343618  -0.001346931710644  -0.010510886622277 0
force S  -0.002438689231643  -0.006608543310433  -0.019926256266189 0
force S   0.008291626270140  -0.016580624539604  -0.016190387875858 0
force S   0.003356867059348  -0.009556488617600  -0.020970698229482 0
force S   0.001701513021159  -0.007467694487371  -0.021204336784300 0
force S  -0.002525127520640  -0.000219388285988  -0.009627539269147 0
force S   0.004458297018926   0.004510869854409   0.002964937994739 0
force S  -0.003219243761194   0.004496664008217   0.002165826376070 0
force S   0.002975807032633  -0.000198563105141  -0.011690873970790 0
force S  -0.002515184214235  -0.006968116543604  -0.019942580995616 0
force S  -0.003215942789932  -0.007310452784291  -0.021053048963562 0
force S  -0.002242691613884  -0.008597296580913  -0.017586279676927 0
force S   0.002791945343636  -0.007004151250938  -0.019946941762789 0
force S  -0.002793510060188  -0.000216069032708  -0.011345460138174 0
force S   0.007221193527974   0.005816605955032  -0.002635300441343 0
force S  -0.008771160593158   0.007419197856719  -0.005300621515854 0
force S   0.003057320185704  -0.000943993668705  -0.011402831203141 0
force S  -0.002412651788824  -0.006665732326168  -0.019802082038950 0
force S  -0.003051235514316  -0.007060183570937  -0.016066664471470 0
force S   0.003413493983739  -0.009356474528917  -0.021329882541512 0
force S   0.002569121708020  -0.007045834702920  -0.020074178165585 0
force S  -0.003037446831286  -0.000962288977959  -0.011401935595638 0
force S   0.004399279724792   0.004017726560879   0.003757798807733 0
force S  -0.000135560332387   0.000137179245769  -0.000200339582102 1
force S   0.000017324856260   0.000010289206021   0.000023686490779 1
force S   0.000097144795262   0.000159320528017   0.000095871734409 1
force S  -0.000003496205683   0.000061266184102  -0.000210173586226 1
force Na   0.000088645927397   0.000119307171842  -0.000042654382500 1
force Na   0.000020693525955   0.000059131716713   0.000105463423336 1

# Energy components:
   Eewald =   -18841.5247793996531982
       EH =   -12703.3757198000675999
     Eloc =    23276.8087415813242842
      Enl =      912.7197045305879328
      Exc =     -970.5119430884013809
 Exc_core =      148.7859896819558116
       KE =     1137.6027155177689565
-------------------------------------
     Etot =    -7039.4952909764851938
       TS =        1.0111670332064275
-------------------------------------
        F =    -7040.5064580096914142

IonicMinimize: Iter:  54  F: -7040.506458009691414  |grad|_K:  1.078e-04  alpha:  5.377e+00  linmin:  2.216e-04  t[s]:  33828.63
IonicMinimize: Converged (|Delta F|<1.000000e-06 for 2 iters).

#--- Lowdin population analysis ---
# oxidation-state Ni -0.002 -0.448 -0.448 -0.002 -0.002 -0.002 -0.442 -0.448 -0.448 -0.445 -0.002 -0.002 -0.001 -0.002 -0.454 -0.448 +0.000 -0.001 -0.445 -0.447 -0.002 -0.002 -0.445 -0.466 -0.458 -0.446 -0.003 -0.002 -0.002 -0.000 -0.446 -0.457 -0.449 -0.446 +0.001 -0.002
# oxidation-state S +0.318 +0.442 +0.086 -0.034 -0.033 +0.085 +0.445 +0.318 +0.316 +0.450 +0.084 -0.174 -0.109 +0.086 +0.444 +0.317 +0.307 +0.445 +0.133 +0.084 +0.446 +0.286 +0.084 -0.077 +0.316 +0.444 +0.085 -0.098 -0.171 +0.085 +0.446 +0.317 +0.318 +0.445 -0.034 +0.086 +0.444 +0.299 +0.086 -0.028 +0.253 +0.424 +0.083 +0.051 +0.036 +0.084 +0.439 +0.280 +0.293 +0.427 +0.084 -0.214 -0.045 +0.082 +0.429 +0.310 +0.293 +0.444 +0.085 -0.033 -0.171 +0.084 +0.444 +0.240 +0.234 +0.445 +0.086 -0.140 -0.030 +0.084 +0.445 +0.316 +0.183 -0.254 +0.223 +0.372
# oxidation-state Na +0.699 +0.740


Dumping 'Na2S4@NiS2_S.fillings' ... done
Dumping 'Na2S4@NiS2_S.wfns' ... done
Dumping 'Na2S4@NiS2_S.ionpos' ... done
Dumping 'Na2S4@NiS2_S.eigenvals' ... done
End date and time: Fri Oct  4 19:56:15 2024  (Duration: 0-9:23:56.41)
Done!
