
*************** JDFTx 1.7.0  ***************

Start date and time: Sat Oct  5 05:30:34 2024
Executable jdftx_gpu with command-line: -i /home/akim2/JDFTx/Na2S4@NiS2_S-PC/Na2S4@NiS2_S-PC.in -o /home/akim2/JDFTx/Na2S4@NiS2_S-PC/Na2S4@NiS2_S-PC.out
Running on hosts (process indices):  exp-5-58 (0)
Divided in process groups (process indices):  0 (0)
gpuInit: Found compatible cuda device 0 'Tesla V100-SXM2-32GB'
gpuInit: Selected device 0
Resource initialization completed at t[s]:      0.69
Run totals: 1 processes, 1 threads, 1 GPUs


Input parsed successfully to the following command list (including defaults):

basis kpoint-dependent
coords-type Cartesian
core-overlap-check vector
coulomb-interaction Slab 001
coulomb-truncation-embed 0 0 7
davidson-band-ratio 1.1
dump End State
dump-name Na2S4@NiS2_S-PC.$VAR
elec-cutoff 20 100
elec-eigen-algo Davidson
elec-ex-corr gga-PBE
elec-smearing Fermi 0.01
electronic-minimize  \
	dirUpdateScheme      FletcherReeves \
	linminMethod         DirUpdateRecommended \
	nIterations          100 \
	history              15 \
	knormThreshold       0 \
	energyDiffThreshold  1e-08 \
	nEnergyDiff          2 \
	alphaTstart          1 \
	alphaTmin            1e-10 \
	updateTestStepSize   yes \
	alphaTreduceFactor   0.1 \
	alphaTincreaseFactor 3 \
	nAlphaAdjustMax      3 \
	wolfeEnergy          0.0001 \
	wolfeGradient        0.9 \
	fdTest               no
exchange-regularization WignerSeitzTruncated
fluid LinearPCM 298.000000 1.013250
fluid-ex-corr lda-TF lda-PZ
fluid-gummel-loop 10 1.000000e-05
fluid-minimize  \
	dirUpdateScheme      PolakRibiere \
	linminMethod         DirUpdateRecommended \
	nIterations          400 \
	history              15 \
	knormThreshold       1e-11 \
	energyDiffThreshold  0 \
	nEnergyDiff          2 \
	alphaTstart          1 \
	alphaTmin            1e-10 \
	updateTestStepSize   yes \
	alphaTreduceFactor   0.1 \
	alphaTincreaseFactor 3 \
	nAlphaAdjustMax      6 \
	wolfeEnergy          0.0001 \
	wolfeGradient        0.9 \
	fdTest               no
fluid-solvent PC 11.6429 ScalarEOS \
	epsBulk 64 \
	pMol 2.95 \
	epsInf 2.02 \
	Pvap 1.53277e-13 \
	sigmaBulk 2.88e-05 \
	Rvdw 0 \
	Res 0 \
	tauNuc 343133
forces-output-coords Positions
ion Ni  32.181130469222218  -0.000028463333331   0.611327655000000 0
ion Ni   5.363545148055554  -0.000028463333331   5.974853827499988 0
ion Ni  32.181130469222218  -5.363543250499998   5.974853827499988 0
ion Ni   5.363545148055554  -5.363543250499998   0.611327655000000 0
ion Ni  32.181130469222218 -10.727058037666666   0.611327655000000 0
ion Ni  32.181130469222218 -21.454087611999999   0.611327655000000 0
ion Ni   5.363545148055554 -21.454087611999999   5.974853827499988 0
ion Ni   5.363545148055554 -10.727058037666666   5.974853827499988 0
ion Ni  32.181130469222218 -16.090572824833334   5.974853827499988 0
ion Ni  32.181130469222218 -26.817602399166635   5.974853827499988 0
ion Ni   5.363545148055554 -26.817602399166635   0.611327655000000 0
ion Ni   5.363545148055554 -16.090572824833334   0.611327655000000 0
ion Ni  10.727071320555536  -0.000028463333331   0.611327655000000 0
ion Ni  21.454100894888885  -0.000028463333331   0.611327655000000 0
ion Ni  21.454100894888885  -5.363543250499998   5.974853827499988 0
ion Ni  10.727071320555536  -5.363543250499998   5.974853827499988 0
ion Ni  16.090574722388887  -5.363543250499998   0.611327655000000 0
ion Ni  26.817604296722191  -5.363543250499998   0.611327655000000 0
ion Ni  26.817604296722191  -0.000028463333331   5.974853827499988 0
ion Ni  16.090574722388887  -0.000028463333331   5.974853827499988 0
ion Ni  10.727071320555536 -10.727058037666666   0.611327655000000 0
ion Ni  21.454100894888885 -21.454087611999999   0.611327655000000 0
ion Ni  26.817604296722191 -21.454087611999999   5.974853827499988 0
ion Ni  16.090574722388887 -10.727058037666666   5.974853827499988 0
ion Ni  21.454100894888885 -16.090572824833334   5.974853827499988 0
ion Ni  10.727071320555536 -26.817602399166635   5.974853827499988 0
ion Ni  16.090574722388887 -26.817602399166635   0.611327655000000 0
ion Ni  26.817604296722191 -16.090572824833334   0.611327655000000 0
ion Ni  10.727071320555536 -21.454087611999999   0.611327655000000 0
ion Ni  21.454100894888885 -10.727058037666666   0.611327655000000 0
ion Ni  26.817604296722191 -10.727058037666666   5.974853827499988 0
ion Ni  16.090574722388887 -21.454087611999999   5.974853827499988 0
ion Ni  21.454100894888885 -26.817602399166635   5.974853827499988 0
ion Ni  10.727071320555536 -16.090572824833334   5.974853827499988 0
ion Ni  16.090574722388887 -16.090572824833334   0.611327655000000 0
ion Ni  26.817604296722191 -26.817602399166635   0.611327655000000 0
ion S   4.232269668888877  -4.232271970733331   7.106125994099994 0
ion S  27.948891161222189 -27.948885064266637   4.843581660899996 0
ion S   1.131317225388885 -27.948885064266637   1.742599821599998 0
ion S   9.595784456055537  -4.232271970733331  10.207107833399991 0
ion S  27.948891161222189  -9.595786757899997  10.207107833399991 0
ion S   4.232269668888877  -1.131311128433331   1.742599821599998 0
ion S   9.595784456055537  -1.131311128433331   4.843581660899996 0
ion S   1.131317225388885  -9.595786757899997   7.106125994099994 0
ion S   4.232269668888877 -14.959301545066650   7.106125994099994 0
ion S  27.948891161222189 -17.221855489933301   4.843581660899996 0
ion S   1.131317225388885 -17.221855489933301   1.742599821599998 0
ion S   9.595784456055537 -14.959301545066650  10.207107833399991 0
ion S  27.948891161222189 -20.322816332233330  10.207107833399991 0
ion S   4.232269668888877 -22.585370277100001   1.742599821599998 0
ion S   9.595784456055537 -22.585370277100001   4.843581660899996 0
ion S   1.131317225388885 -20.322816332233330   7.106125994099994 0
ion S  14.959299243222205  -4.232271970733330   7.106125994099994 0
ion S  17.221861586888888 -27.948885064266637   4.843581660899996 0
ion S  17.221861586888888  -9.595786757899997  10.207107833399991 0
ion S  14.959299243222205  -1.131311128433331   1.742599821599998 0
ion S  20.322814030388887  -1.131311128433331   4.843581660899996 0
ion S  22.585376374055553  -9.595786757899997   7.106125994099994 0
ion S  22.585376374055553 -27.948885064266637   1.742599821599998 0
ion S  20.322814030388887  -4.232271970733330  10.207107833399991 0
ion S   4.232269668888877 -25.686331119399970   7.106125994099994 0
ion S  27.948891161222189  -6.494825915599990   4.843581660899996 0
ion S   1.131317225388885  -6.494825915599990   1.742599821599998 0
ion S   9.595784456055537 -25.686331119399970  10.207107833399991 0
ion S  27.948891161222189 -31.049845906566667  10.207107833399991 0
ion S   4.232269668888877 -11.858340702766650   1.742599821599998 0
ion S   9.595784456055537 -11.858340702766650   4.843581660899996 0
ion S   1.131317225388885 -31.049845906566667   7.106125994099994 0
ion S  25.686328817555523  -4.232271970733330   7.106125994099994 0
ion S   6.494832012555547 -27.948885064266637   4.843581660899996 0
ion S   6.494832012555547  -9.595786757899997  10.207107833399991 0
ion S  25.686328817555523  -1.131311128433331   1.742599821599998 0
ion S  31.049843604722220  -1.131311128433331   4.843581660899996 0
ion S  11.858346799722206  -9.595786757899997   7.106125994099994 0
ion S  11.858346799722206 -27.948885064266637   1.742599821599998 0
ion S  31.049843604722220  -4.232271970733330  10.207107833399991 0
ion S  14.959299243222205 -14.959301545066650   7.106125994099994 0
ion S  17.221861586888888 -17.221855489933301   4.843581660899996 0
ion S  22.585376374055553 -17.221855489933301   1.742599821599998 0
ion S  20.322814030388887 -14.959301545066650  10.207107833399991 0
ion S  17.221861586888888 -20.322816332233330  10.207107833399991 0
ion S  14.959299243222205 -22.585370277100001   1.742599821599998 0
ion S  20.322814030388887 -22.585370277100001   4.843581660899996 0
ion S  22.585376374055553 -20.322816332233330   7.106125994099994 0
ion S  14.959299243222205 -25.686331119399970   7.106125994099994 0
ion S  17.221861586888888  -6.494825915599990   4.843581660899996 0
ion S  22.585376374055553  -6.494825915599990   1.742599821599998 0
ion S  20.322814030388887 -25.686331119399970  10.207107833399991 0
ion S  17.221861586888888 -31.049845906566667  10.207107833399991 0
ion S  14.959299243222205 -11.858340702766650   1.742599821599998 0
ion S  20.322814030388887 -11.858340702766650   4.843581660899996 0
ion S  22.585376374055553 -31.049845906566667   7.106125994099994 0
ion S  25.686328817555523 -14.959301545066650   7.106125994099994 0
ion S   6.494832012555547 -17.221855489933301   4.843581660899996 0
ion S  11.858346799722206 -17.221855489933301   1.742599821599998 0
ion S  31.049843604722220 -14.959301545066650  10.207107833399991 0
ion S   6.494832012555547 -20.322816332233330  10.207107833399991 0
ion S  25.686328817555523 -22.585370277100001   1.742599821599998 0
ion S  31.049843604722220 -22.585370277100001   4.843581660899996 0
ion S  11.858346799722206 -20.322816332233330   7.106125994099994 0
ion S  25.686328817555523 -25.686331119399970   7.106125994099994 0
ion S   6.494832012555547  -6.494825915599990   4.843581660899996 0
ion S  11.858346799722206  -6.494825915599990   1.742599821599998 0
ion S  31.049843604722220 -25.686331119399970  10.207107833399991 0
ion S   6.494832012555547 -31.049845906566667  10.207107833399991 0
ion S  25.686328817555523 -11.858340702766650   1.742599821599998 0
ion S  31.049843604722220 -11.858340702766650   4.843581660899996 0
ion S  11.858346799722206 -31.049845906566667   7.106125994099994 0
ion S  15.471942061476629 -11.763866191409679  12.648925931294531 1
ion S  14.817169991503214 -21.603511999306285  15.796519619413594 1
ion S  17.710042005525114 -15.303126508907557  12.800843096220989 1
ion S  16.130943597906381 -23.159479201964160  12.643258338011616 1
ion Na  11.049462915752370 -19.680835703965929  12.598608303907588 1
ion Na  25.726973749507764 -26.476880040626185  12.246901125920868 1
ion-species GBRV/$ID_pbe.uspp
ion-width Ecut
ionic-minimize  \
	dirUpdateScheme      FletcherReeves \
	linminMethod         DirUpdateRecommended \
	nIterations          200 \
	history              15 \
	knormThreshold       0.0001 \
	energyDiffThreshold  1e-06 \
	nEnergyDiff          2 \
	alphaTstart          1 \
	alphaTmin            1e-10 \
	updateTestStepSize   yes \
	alphaTreduceFactor   0.1 \
	alphaTincreaseFactor 3 \
	nAlphaAdjustMax      3 \
	wolfeEnergy          0.0001 \
	wolfeGradient        0.9 \
	fdTest               no
kpoint   0.000000000000   0.000000000000   0.000000000000  1.00000000000000
kpoint-folding 1 1 1 
latt-move-scale 1 1 1
latt-scale 1 1 1 
lattice Triclinic 32.1811 32.1811 44 90 90 90
lattice-minimize  \
	dirUpdateScheme      L-BFGS \
	linminMethod         DirUpdateRecommended \
	nIterations          0 \
	history              15 \
	knormThreshold       0 \
	energyDiffThreshold  1e-06 \
	nEnergyDiff          2 \
	alphaTstart          1 \
	alphaTmin            1e-10 \
	updateTestStepSize   yes \
	alphaTreduceFactor   0.1 \
	alphaTincreaseFactor 3 \
	nAlphaAdjustMax      3 \
	wolfeEnergy          0.0001 \
	wolfeGradient        0.9 \
	fdTest               no
lcao-params -1 1e-06 0.01
pcm-variant GLSSA13
spintype no-spin
subspace-rotation-factor 1 yes
symmetries automatic
symmetry-threshold 0.0001



---------- Setting up symmetries ----------

Found 16 point-group symmetries of the bravais lattice
Found 1 space-group symmetries with basis
Applied RMS atom displacement 0 bohrs to make symmetries exact.

---------- Initializing the Grid ----------
R = 
[      32.1811            0            0  ]
[            0      32.1811            0  ]
[            0            0           44  ]
unit cell volume = 45567.4
G =
[   0.195245          0          0  ]
[          0   0.195245          0  ]
[          0          0     0.1428  ]
Minimum fftbox size, Smin = [  148  148  200  ]
Chosen fftbox size, S = [  150  150  200  ]

---------- Initializing tighter grid for wavefunction operations ----------
R = 
[      32.1811            0            0  ]
[            0      32.1811            0  ]
[            0            0           44  ]
unit cell volume = 45567.4
G =
[   0.195245          0          0  ]
[          0   0.195245          0  ]
[          0          0     0.1428  ]
Minimum fftbox size, Smin = [  132  132  180  ]
Chosen fftbox size, S = [  140  140  180  ]

---------- Exchange Correlation functional ----------
Initalized PBE GGA exchange.
Initalized PBE GGA correlation.

---------- Setting up pseudopotentials ----------
Width of ionic core gaussian charges (only for fluid interactions / plotting) set to 0.397384

Reading pseudopotential file '/home/akim2/jdftx_install/build/pseudopotentials/GBRV/ni_pbe.uspp':
  Title: Ni.  Created by USPP 7.3.6 on 1-4-15
  Reference state energy: -170.398381.  18 valence electrons in orbitals:
    |300>  occupation: 2  eigenvalue: -4.804705
    |310>  occupation: 6  eigenvalue: -3.347751
    |320>  occupation: 8  eigenvalue: -1.042415
    |400>  occupation: 0  eigenvalue: -0.795539
    |410>  occupation: 0  eigenvalue: -0.551375
  lMax: 2  lLocal: 3  QijEcut: 6.5
  6 projectors sampled on a log grid with 611 points:
    l: 0  eig: -4.804708  rCut: 1.44
    l: 0  eig: -0.795541  rCut: 1.44
    l: 1  eig: -3.347753  rCut: 1.55
    l: 1  eig: 0.500000  rCut: 1.55
    l: 2  eig: -1.042418  rCut: 1.5
    l: 2  eig: -0.450000  rCut: 1.5
  Partial core density with radius 0.65
  Transforming core density to a uniform radial grid of dG=0.02 with 1263 points.
  Transforming local potential to a uniform radial grid of dG=0.02 with 1263 points.
  Transforming nonlocal projectors to a uniform radial grid of dG=0.02 with 432 points.
  Transforming density augmentations to a uniform radial grid of dG=0.02 with 1263 points.
  Transforming atomic orbitals to a uniform radial grid of dG=0.02 with 432 points.
  Core radius for overlap checks: 1.55 bohrs.

Reading pseudopotential file '/home/akim2/jdftx_install/build/pseudopotentials/GBRV/s_pbe.uspp':
  Title: S.  Created by USPP 7.3.6 on 1-4-15
  Reference state energy: -11.898476.  6 valence electrons in orbitals:
    |300>  occupation: 2  eigenvalue: -0.634167
    |310>  occupation: 4  eigenvalue: -0.257568
  lMax: 2  lLocal: 3  QijEcut: 6
  6 projectors sampled on a log grid with 635 points:
    l: 0  eig: -0.634161  rCut: 1.5
    l: 0  eig: 1.500000  rCut: 1.5
    l: 1  eig: -0.257567  rCut: 1.5
    l: 1  eig: 1.500000  rCut: 1.5
    l: 2  eig: -1.000000  rCut: 1.5
    l: 2  eig: 1.500000  rCut: 1.5
  Partial core density with radius 1.15
  Transforming core density to a uniform radial grid of dG=0.02 with 1263 points.
  Transforming local potential to a uniform radial grid of dG=0.02 with 1263 points.
  Transforming nonlocal projectors to a uniform radial grid of dG=0.02 with 432 points.
  Transforming density augmentations to a uniform radial grid of dG=0.02 with 1263 points.
  Transforming atomic orbitals to a uniform radial grid of dG=0.02 with 432 points.
  Core radius for overlap checks: 1.50 bohrs.

Reading pseudopotential file '/home/akim2/jdftx_install/build/pseudopotentials/GBRV/na_pbe.uspp':
  Title: Na.  Created by USPP 7.3.6 on 23-9-15
  Reference state energy: -47.625620.  9 valence electrons in orbitals:
    |200>  occupation: 2  eigenvalue: -2.085638
    |210>  occupation: 6  eigenvalue: -1.053708
    |300>  occupation: 1  eigenvalue: -0.100838
  lMax: 2  lLocal: 0  QijEcut: 6
  5 projectors sampled on a log grid with 657 points:
    l: 0  eig: -2.085640  rCut: 1.37
    l: 0  eig: -0.100839  rCut: 1.37
    l: 1  eig: -1.053708  rCut: 1.47
    l: 1  eig: 0.500000  rCut: 1.47
    l: 2  eig: 0.750000  rCut: 2
  Transforming local potential to a uniform radial grid of dG=0.02 with 1263 points.
  Transforming nonlocal projectors to a uniform radial grid of dG=0.02 with 432 points.
  Transforming density augmentations to a uniform radial grid of dG=0.02 with 1263 points.
  Transforming atomic orbitals to a uniform radial grid of dG=0.02 with 432 points.
  Core radius for overlap checks: 2.00 bohrs.

Initialized 3 species with 114 total atoms.

Folded 1 k-points by 1x1x1 to 1 k-points.

---------- Setting up k-points, bands, fillings ----------
No reducable k-points. 
Computing the number of bands and number of electrons
Calculating initial fillings.
nElectrons: 1122.000000   nBands: 782   nStates: 1

----- Setting up reduced wavefunction bases (one per k-point) -----
average nbasis = 194745.000 , ideal nbasis = 194667.357

---------- Setting up coulomb interaction ----------
Fluid mode embedding: using embedded box, but periodic Coulomb kernel.
(Fluid response is responsible for (approximate) separation between periodic images.)
Setting up double-sized grid for truncated Coulomb potentials:
R = 
[      32.1811            0            0  ]
[            0      32.1811            0  ]
[            0            0           88  ]
unit cell volume = 91134.8
G =
[   0.195245          0          0  ]
[          0   0.195245          0  ]
[          0          0  0.0713998  ]
Chosen fftbox size, S = [  150  150  400  ]
Integer grid location selected as the embedding center:
   Grid: [  0  0  32  ]
   Lattice: [  0  0  0.159091  ]
   Cartesian: [  0  0  7  ]
Constructing Wigner-Seitz cell: 6 faces (6 quadrilaterals, 0 hexagons)
Range-separation parameter for embedded mesh potentials due to point charges: 0.591727 bohrs.

---------- Setting up ewald sum ----------
Optimum gaussian width for ewald sums = 8.153060 bohr.
Real space sum over 405 unit cells with max indices [  4  4  2  ]
Reciprocal space sum over 8325 terms with max indices [  7  7  18  ]

---------- Allocating electronic variables ----------
Initializing wave functions:  linear combination of atomic orbitals
Ni pseudo-atom occupations:   s ( 2 0 )  p ( 6 0 )  d ( 10 )
S pseudo-atom occupations:   s ( 2 )  p ( 4 )
Na pseudo-atom occupations:   s ( 2 1 )  p ( 6 )
	FillingsUpdate:  mu: -1.014333982  nElectrons: 1122.000000
LCAOMinimize: Iter:   0  F: -6303.1733157398793992  |grad|_K:  3.620e-02  alpha:  1.000e+00
	FillingsUpdate:  mu: +3.956361594  nElectrons: 1122.000000
LCAOMinimize: Iter:   1  F: -6439.2264145714216284  |grad|_K:  1.486e-01  alpha:  2.098e-01  linmin:  9.922e-02  cgtest: -5.627e-01  t[s]:     23.00
LCAOMinimize: 	Bad step direction: g.d > 0.
LCAOMinimize: 	Undoing step.
LCAOMinimize: 	Step failed: resetting search direction.
	FillingsUpdate:  mu: +3.956361594  nElectrons: 1122.000000
LCAOMinimize: Iter:   2  F: -6439.2264145714216284  |grad|_K:  1.486e-01  alpha:  0.000e+00
	FillingsUpdate:  mu: +1.903102138  nElectrons: 1122.000000
LCAOMinimize: Iter:   3  F: -6630.3908901198974490  |grad|_K:  2.261e-01  alpha:  7.631e-02  linmin:  2.403e-01  cgtest: -4.861e-01  t[s]:     34.89
LCAOMinimize: 	Bad step direction: g.d > 0.
LCAOMinimize: 	Undoing step.
LCAOMinimize: 	Step failed: resetting search direction.
	FillingsUpdate:  mu: +1.903102138  nElectrons: 1122.000000
LCAOMinimize: Iter:   4  F: -6630.3908901198974490  |grad|_K:  2.261e-01  alpha:  0.000e+00
	FillingsUpdate:  mu: +0.388835576  nElectrons: 1122.000000
LCAOMinimize: Iter:   5  F: -6982.2360411111440044  |grad|_K:  6.911e-02  alpha:  3.935e-02  linmin:  4.982e-02  cgtest: -1.241e+00  t[s]:     46.92
	FillingsUpdate:  mu: +0.434810184  nElectrons: 1122.000000
LCAOMinimize: Iter:   6  F: -6985.6971750612983669  |grad|_K:  5.312e-02  alpha:  1.475e-02  linmin:  7.498e-02  cgtest:  1.490e-01  t[s]:     53.92
LCAOMinimize: 	Predicted alpha/alphaT>3.000000, increasing alphaT to 4.423662e-02.
	FillingsUpdate:  mu: -0.097111399  nElectrons: 1122.000000
LCAOMinimize: Iter:   7  F: -7011.9725547933612688  |grad|_K:  3.032e-02  alpha:  3.202e-02  linmin:  1.523e-04  cgtest:  2.924e-01  t[s]:     62.79
	FillingsUpdate:  mu: -0.043207843  nElectrons: 1122.000000
LCAOMinimize: Iter:   8  F: -7019.4682357554220289  |grad|_K:  3.391e-02  alpha:  2.404e-02  linmin:  6.642e-04  cgtest: -1.509e-01  t[s]:     69.75
	FillingsUpdate:  mu: -0.023685872  nElectrons: 1122.000000
LCAOMinimize: Iter:   9  F: -7020.8529696035675443  |grad|_K:  3.394e-02  alpha:  1.978e-03  linmin: -8.117e-02  cgtest:  9.638e-01  t[s]:     76.76
LCAOMinimize: 	Predicted alpha/alphaT>3.000000, increasing alphaT to 5.933016e-03.
	FillingsUpdate:  mu: -0.054761365  nElectrons: 1122.000000
LCAOMinimize: Iter:  10  F: -7026.7654813161143466  |grad|_K:  1.601e-02  alpha:  1.391e-02  linmin: -2.049e-01  cgtest:  2.410e-01  t[s]:     85.63
LCAOMinimize: 	Wrong curvature in test step, increasing alphaT to 4.173451e-02.
	FillingsUpdate:  mu: -0.024193601  nElectrons: 1122.000000
LCAOMinimize: Iter:  11  F: -7029.3094551681251687  |grad|_K:  1.368e-02  alpha: -4.590e-01  linmin: -2.952e-01  cgtest:  7.311e-01  t[s]:     92.19
LCAOMinimize: 	Step increased F by 1.837605e+02, reducing alpha to 1.087850e-02.
	FillingsUpdate:  mu: -0.011843366  nElectrons: 1122.000000
LCAOMinimize: Iter:  12  F: -7030.7597841596088983  |grad|_K:  1.185e-02  alpha:  1.088e-02  linmin: -3.378e-01  cgtest:  8.321e-01  t[s]:    104.17
LCAOMinimize: 	Predicted alpha/alphaT>3.000000, increasing alphaT to 3.263550e-02.
LCAOMinimize: 	Step increased F by 2.445139e+00, reducing alpha to 5.672627e-03.
	FillingsUpdate:  mu: -0.006659110  nElectrons: 1122.000000
LCAOMinimize: Iter:  13  F: -7031.2669139230101791  |grad|_K:  1.108e-02  alpha:  5.673e-03  linmin: -3.534e-01  cgtest:  9.453e-01  t[s]:    118.07
LCAOMinimize: Encountered beta<0, resetting CG.
LCAOMinimize: 	Predicted alpha/alphaT>3.000000, increasing alphaT to 1.701788e-02.
LCAOMinimize: 	Predicted alpha/alphaT>3.000000, increasing alphaT to 5.105365e-02.
	FillingsUpdate:  mu: +0.026700428  nElectrons: 1122.000000
LCAOMinimize: Iter:  14  F: -7032.9559812487877934  |grad|_K:  6.942e-03  alpha:  2.831e-02  linmin: -1.809e-01  cgtest:  4.748e-01  t[s]:    128.57
	FillingsUpdate:  mu: +0.038489325  nElectrons: 1122.000000
LCAOMinimize: Iter:  15  F: -7033.9895193970933178  |grad|_K:  6.680e-03  alpha:  6.390e-02  linmin: -5.160e-03  cgtest:  1.127e-01  t[s]:    135.52
	FillingsUpdate:  mu: -0.000446291  nElectrons: 1122.000000
LCAOMinimize: Iter:  16  F: -7034.4601602205539166  |grad|_K:  3.887e-03  alpha:  2.887e-02  linmin: -3.944e-02  cgtest:  2.677e-02  t[s]:    142.50
	FillingsUpdate:  mu: -0.024310596  nElectrons: 1122.000000
LCAOMinimize: Iter:  17  F: -7034.6025213239754521  |grad|_K:  2.723e-03  alpha:  2.776e-02  linmin:  5.794e-03  cgtest: -2.406e-01  t[s]:    149.50
	FillingsUpdate:  mu: -0.044371290  nElectrons: 1122.000000
LCAOMinimize: Iter:  18  F: -7034.6734065724558604  |grad|_K:  2.505e-03  alpha:  3.226e-02  linmin:  6.339e-03  cgtest:  1.932e-01  t[s]:    156.49
	FillingsUpdate:  mu: -0.061944438  nElectrons: 1122.000000
LCAOMinimize: Iter:  19  F: -7034.7278325771603704  |grad|_K:  2.138e-03  alpha:  2.898e-02  linmin:  3.641e-03  cgtest:  5.263e-02  t[s]:    163.47
	FillingsUpdate:  mu: -0.055975074  nElectrons: 1122.000000
LCAOMinimize: Iter:  20  F: -7034.7687391441777436  |grad|_K:  1.921e-03  alpha:  2.972e-02  linmin:  2.401e-03  cgtest:  1.328e-02  t[s]:    170.45
	FillingsUpdate:  mu: -0.054012977  nElectrons: 1122.000000
LCAOMinimize: Iter:  21  F: -7034.7996597411156472  |grad|_K:  1.559e-03  alpha:  2.764e-02  linmin:  1.788e-03  cgtest:  5.536e-02  t[s]:    177.56
	FillingsUpdate:  mu: -0.063822027  nElectrons: 1122.000000
LCAOMinimize: Iter:  22  F: -7034.8201071513749412  |grad|_K:  1.372e-03  alpha:  2.767e-02  linmin:  1.910e-03  cgtest:  1.033e-02  t[s]:    184.58
	FillingsUpdate:  mu: -0.071190224  nElectrons: 1122.000000
LCAOMinimize: Iter:  23  F: -7034.8455473212288780  |grad|_K:  1.274e-03  alpha:  4.495e-02  linmin:  3.642e-03  cgtest:  1.242e-02  t[s]:    191.63
	FillingsUpdate:  mu: -0.077023554  nElectrons: 1122.000000
LCAOMinimize: Iter:  24  F: -7034.8541522841969709  |grad|_K:  6.854e-04  alpha:  1.763e-02  linmin: -7.003e-04  cgtest:  8.490e-02  t[s]:    198.60
	FillingsUpdate:  mu: -0.077562233  nElectrons: 1122.000000
LCAOMinimize: Iter:  25  F: -7034.8580798207312910  |grad|_K:  5.178e-04  alpha:  2.722e-02  linmin:  5.018e-06  cgtest: -9.681e-03  t[s]:    205.67
	FillingsUpdate:  mu: -0.073804107  nElectrons: 1122.000000
LCAOMinimize: Iter:  26  F: -7034.8603640913224808  |grad|_K:  3.734e-04  alpha:  2.779e-02  linmin: -4.266e-04  cgtest: -2.593e-03  t[s]:    212.78
	FillingsUpdate:  mu: -0.072717473  nElectrons: 1122.000000
LCAOMinimize: Iter:  27  F: -7034.8620007485251335  |grad|_K:  3.373e-04  alpha:  3.818e-02  linmin: -4.574e-04  cgtest: -1.513e-04  t[s]:    219.81
	FillingsUpdate:  mu: -0.073314656  nElectrons: 1122.000000
LCAOMinimize: Iter:  28  F: -7034.8629619088969775  |grad|_K:  2.873e-04  alpha:  2.746e-02  linmin:  3.320e-05  cgtest:  1.811e-03  t[s]:    226.84
	FillingsUpdate:  mu: -0.073153065  nElectrons: 1122.000000
LCAOMinimize: Iter:  29  F: -7034.8637490679229813  |grad|_K:  2.334e-04  alpha:  3.111e-02  linmin: -2.132e-04  cgtest:  2.773e-03  t[s]:    233.83
	FillingsUpdate:  mu: -0.073403397  nElectrons: 1122.000000
LCAOMinimize: Iter:  30  F: -7034.8642965825511055  |grad|_K:  2.037e-04  alpha:  3.273e-02  linmin: -1.954e-04  cgtest: -2.603e-03  t[s]:    240.83
LCAOMinimize: None of the convergence criteria satisfied after 30 iterations.
----- createFluidSolver() ----- (Fluid-side solver setup)
   Initializing fluid molecule 'PC'
     Net charge: 0   dipole magnitude: 0
     Initializing spherical shell mfKernel with radius 0 Bohr
     deltaS corrections:

Correction to mu due to finite nuclear width = -0.0122154
   Cavity determined by nc: 0.00098 and sigma: 0.6
   Effective cavity tension: 9.53e-06 Eh/bohr^2 to account for cavitation and dispersion.


---- Citations for features of the code used in this run ----

   Software package:
      R. Sundararaman, K. Letchworth-Weaver, K.A. Schwarz, D. Gunceler, Y. Ozhabes and T.A. Arias, 'JDFTx: software for joint density-functional theory', SoftwareX 6, 278 (2017)

   gga-PBE exchange-correlation functional:
      J.P. Perdew, K. Burke and M. Ernzerhof, Phys. Rev. Lett. 77, 3865 (1996)

   Pseudopotentials:
      KF Garrity, JW Bennett, KM Rabe and D Vanderbilt, Comput. Mater. Sci. 81, 446 (2014)

   Truncated Coulomb potentials:
      R. Sundararaman and T.A. Arias, Phys. Rev. B 87, 165122 (2013)

   Linear/nonlinear dielectric/ionic fluid model with effective cavity tension:
      D. Gunceler, K. Letchworth-Weaver, R. Sundararaman, K.A. Schwarz and T.A. Arias, Modelling Simul. Mater. Sci. Eng. 21, 074005 (2013)

   Total energy minimization with Auxiliary Hamiltonian:
      C. Freysoldt, S. Boeck, and J. Neugebauer, Phys. Rev. B 79, 241103(R) (2009)

This list may not be complete. Please suggest additional citations or
report any other bugs at https://github.com/shankar1729/jdftx/issues

Initialization completed successfully at t[s]:    242.73

Fluid solver invoked on fresh (random / LCAO) wavefunctions
Running a vacuum solve first:

-------- Initial electronic minimization -----------
	FillingsUpdate:  mu: -0.073403396  nElectrons: 1122.000000
ElecMinimize: Iter:   0  F: -7034.864296582579300  |grad|_K:  2.054e-04  alpha:  1.000e+00
	FillingsUpdate:  mu: -0.114715425  nElectrons: 1122.000000
	SubspaceRotationAdjust: set factor to 0.693
ElecMinimize: Iter:   1  F: -7036.789739089488648  |grad|_K:  2.927e-04  alpha:  2.912e-01  linmin: -9.499e-06  t[s]:    262.38
	FillingsUpdate:  mu: -0.011702342  nElectrons: 1122.000000
	SubspaceRotationAdjust: set factor to 0.383
ElecMinimize: Iter:   2  F: -7036.879032505705254  |grad|_K:  5.173e-04  alpha:  6.307e-02  linmin:  2.469e-04  t[s]:    274.44
	FillingsUpdate:  mu: +0.018520283  nElectrons: 1122.000000
	SubspaceRotationAdjust: set factor to 0.226
ElecMinimize: Iter:   3  F: -7037.207362903299327  |grad|_K:  4.364e-04  alpha:  2.955e-02  linmin:  5.051e-06  t[s]:    286.62
	FillingsUpdate:  mu: -0.036958142  nElectrons: 1122.000000
	SubspaceRotationAdjust: set factor to 0.341
ElecMinimize: Iter:   4  F: -7038.447782475347594  |grad|_K:  2.107e-04  alpha:  4.334e-02  linmin: -1.247e-06  t[s]:    298.70
	FillingsUpdate:  mu: -0.043771703  nElectrons: 1122.000000
	SubspaceRotationAdjust: set factor to 0.281
ElecMinimize: Iter:   5  F: -7039.033878844862556  |grad|_K:  1.814e-04  alpha:  8.772e-02  linmin:  1.714e-05  t[s]:    310.78
	FillingsUpdate:  mu: -0.059925143  nElectrons: 1122.000000
	SubspaceRotationAdjust: set factor to 0.327
ElecMinimize: Iter:   6  F: -7039.330814258829378  |grad|_K:  1.265e-04  alpha:  6.227e-02  linmin: -2.433e-06  t[s]:    322.75
	FillingsUpdate:  mu: -0.032658094  nElectrons: 1122.000000
	SubspaceRotationAdjust: set factor to 0.289
ElecMinimize: Iter:   7  F: -7039.603434479157841  |grad|_K:  1.496e-04  alpha:  1.104e-01  linmin: -1.023e-05  t[s]:    334.81
	FillingsUpdate:  mu: -0.088462778  nElectrons: 1122.000000
	SubspaceRotationAdjust: set factor to 0.306
ElecMinimize: Iter:   8  F: -7039.943979519053755  |grad|_K:  1.189e-04  alpha:  9.807e-02  linmin:  6.403e-06  t[s]:    346.79
	FillingsUpdate:  mu: -0.108069029  nElectrons: 1122.000000
	SubspaceRotationAdjust: set factor to 0.316
ElecMinimize: Iter:   9  F: -7040.104293878599492  |grad|_K:  8.737e-05  alpha:  7.379e-02  linmin:  1.229e-05  t[s]:    358.83
	FillingsUpdate:  mu: -0.109612501  nElectrons: 1122.000000
	SubspaceRotationAdjust: set factor to 0.36
ElecMinimize: Iter:  10  F: -7040.185387266392354  |grad|_K:  6.978e-05  alpha:  7.016e-02  linmin:  3.642e-05  t[s]:    370.80
	FillingsUpdate:  mu: -0.096044943  nElectrons: 1122.000000
	SubspaceRotationAdjust: set factor to 0.271
ElecMinimize: Iter:  11  F: -7040.246725202264315  |grad|_K:  7.524e-05  alpha:  8.337e-02  linmin:  3.427e-06  t[s]:    382.82
	FillingsUpdate:  mu: -0.092367612  nElectrons: 1122.000000
	SubspaceRotationAdjust: set factor to 0.202
ElecMinimize: Iter:  12  F: -7040.323878010879525  |grad|_K:  6.188e-05  alpha:  8.928e-02  linmin: -2.148e-05  t[s]:    394.81
	FillingsUpdate:  mu: -0.096989177  nElectrons: 1122.000000
	SubspaceRotationAdjust: set factor to 0.194
ElecMinimize: Iter:  13  F: -7040.369754477061178  |grad|_K:  4.401e-05  alpha:  7.758e-02  linmin:  4.371e-06  t[s]:    406.88
	FillingsUpdate:  mu: -0.097890729  nElectrons: 1122.000000
	SubspaceRotationAdjust: set factor to 0.161
ElecMinimize: Iter:  14  F: -7040.403870284109871  |grad|_K:  3.971e-05  alpha:  1.157e-01  linmin: -1.754e-06  t[s]:    418.87
	FillingsUpdate:  mu: -0.097444766  nElectrons: 1122.000000
	SubspaceRotationAdjust: set factor to 0.202
ElecMinimize: Iter:  15  F: -7040.430670433676823  |grad|_K:  3.341e-05  alpha:  1.113e-01  linmin: -4.978e-06  t[s]:    430.90
	FillingsUpdate:  mu: -0.098198401  nElectrons: 1122.000000
	SubspaceRotationAdjust: set factor to 0.222
ElecMinimize: Iter:  16  F: -7040.453281633440383  |grad|_K:  2.835e-05  alpha:  1.313e-01  linmin: -4.711e-06  t[s]:    442.94
	FillingsUpdate:  mu: -0.104715079  nElectrons: 1122.000000
	SubspaceRotationAdjust: set factor to 0.281
ElecMinimize: Iter:  17  F: -7040.465664024116450  |grad|_K:  2.096e-05  alpha:  1.002e-01  linmin:  1.828e-07  t[s]:    455.10
	FillingsUpdate:  mu: -0.108862225  nElectrons: 1122.000000
	SubspaceRotationAdjust: set factor to 0.29
ElecMinimize: Iter:  18  F: -7040.474594698163855  |grad|_K:  2.291e-05  alpha:  1.334e-01  linmin:  9.995e-07  t[s]:    467.24
	FillingsUpdate:  mu: -0.108452137  nElectrons: 1122.000000
	SubspaceRotationAdjust: set factor to 0.303
ElecMinimize: Iter:  19  F: -7040.484066845224334  |grad|_K:  2.006e-05  alpha:  1.186e-01  linmin:  2.711e-07  t[s]:    479.41
	FillingsUpdate:  mu: -0.106194938  nElectrons: 1122.000000
	SubspaceRotationAdjust: set factor to 0.33
ElecMinimize: Iter:  20  F: -7040.490280280107072  |grad|_K:  1.660e-05  alpha:  1.013e-01  linmin: -9.438e-08  t[s]:    491.53
	FillingsUpdate:  mu: -0.105473663  nElectrons: 1122.000000
	SubspaceRotationAdjust: set factor to 0.352
ElecMinimize: Iter:  21  F: -7040.494224316067630  |grad|_K:  1.353e-05  alpha:  9.375e-02  linmin:  1.228e-07  t[s]:    503.65
	FillingsUpdate:  mu: -0.105343315  nElectrons: 1122.000000
	SubspaceRotationAdjust: set factor to 0.339
ElecMinimize: Iter:  22  F: -7040.497375323169763  |grad|_K:  1.357e-05  alpha:  1.129e-01  linmin:  2.773e-07  t[s]:    515.70
	FillingsUpdate:  mu: -0.105344338  nElectrons: 1122.000000
	SubspaceRotationAdjust: set factor to 0.362
ElecMinimize: Iter:  23  F: -7040.500122418881801  |grad|_K:  1.215e-05  alpha:  9.794e-02  linmin: -8.513e-08  t[s]:    527.77
	FillingsUpdate:  mu: -0.107067492  nElectrons: 1122.000000
	SubspaceRotationAdjust: set factor to 0.431
ElecMinimize: Iter:  24  F: -7040.502420457510198  |grad|_K:  9.853e-06  alpha:  1.019e-01  linmin:  3.036e-07  t[s]:    539.83
	FillingsUpdate:  mu: -0.108373640  nElectrons: 1122.000000
	SubspaceRotationAdjust: set factor to 0.409
ElecMinimize: Iter:  25  F: -7040.503588224351915  |grad|_K:  8.753e-06  alpha:  7.890e-02  linmin:  7.777e-08  t[s]:    551.90
	FillingsUpdate:  mu: -0.108490808  nElectrons: 1122.000000
	SubspaceRotationAdjust: set factor to 0.479
ElecMinimize: Iter:  26  F: -7040.505009556772166  |grad|_K:  8.288e-06  alpha:  1.216e-01  linmin: -1.794e-07  t[s]:    563.89
	FillingsUpdate:  mu: -0.108041749  nElectrons: 1122.000000
	SubspaceRotationAdjust: set factor to 0.413
ElecMinimize: Iter:  27  F: -7040.505746914395786  |grad|_K:  6.540e-06  alpha:  7.047e-02  linmin:  1.587e-07  t[s]:    575.97
	FillingsUpdate:  mu: -0.107877084  nElectrons: 1122.000000
	SubspaceRotationAdjust: set factor to 0.458
ElecMinimize: Iter:  28  F: -7040.506387736708348  |grad|_K:  5.231e-06  alpha:  9.825e-02  linmin: -4.926e-08  t[s]:    587.97
	FillingsUpdate:  mu: -0.107647504  nElectrons: 1122.000000
	SubspaceRotationAdjust: set factor to 0.385
ElecMinimize: Iter:  29  F: -7040.506756306420357  |grad|_K:  4.861e-06  alpha:  8.823e-02  linmin:  9.863e-09  t[s]:    599.98
	FillingsUpdate:  mu: -0.107345601  nElectrons: 1122.000000
	SubspaceRotationAdjust: set factor to 0.455
ElecMinimize: Iter:  30  F: -7040.507077745503921  |grad|_K:  3.708e-06  alpha:  8.914e-02  linmin:  9.969e-08  t[s]:    612.00
	FillingsUpdate:  mu: -0.107375508  nElectrons: 1122.000000
	SubspaceRotationAdjust: set factor to 0.455
ElecMinimize: Iter:  31  F: -7040.507316693027860  |grad|_K:  3.553e-06  alpha:  1.140e-01  linmin:  4.251e-07  t[s]:    624.03
	FillingsUpdate:  mu: -0.107417003  nElectrons: 1122.000000
	SubspaceRotationAdjust: set factor to 0.418
ElecMinimize: Iter:  32  F: -7040.507459109870979  |grad|_K:  2.909e-06  alpha:  7.401e-02  linmin:  8.924e-08  t[s]:    636.01
	FillingsUpdate:  mu: -0.107529285  nElectrons: 1122.000000
	SubspaceRotationAdjust: set factor to 0.369
ElecMinimize: Iter:  33  F: -7040.507622786542015  |grad|_K:  2.495e-06  alpha:  1.268e-01  linmin:  3.218e-07  t[s]:    648.06
	FillingsUpdate:  mu: -0.107642325  nElectrons: 1122.000000
	SubspaceRotationAdjust: set factor to 0.387
ElecMinimize: Iter:  34  F: -7040.507691560773310  |grad|_K:  1.812e-06  alpha:  7.243e-02  linmin:  2.184e-07  t[s]:    660.09
	FillingsUpdate:  mu: -0.107592848  nElectrons: 1122.000000
	SubspaceRotationAdjust: set factor to 0.418
ElecMinimize: Iter:  35  F: -7040.507750017942271  |grad|_K:  1.675e-06  alpha:  1.167e-01  linmin:  3.433e-07  t[s]:    672.10
	FillingsUpdate:  mu: -0.107449749  nElectrons: 1122.000000
	SubspaceRotationAdjust: set factor to 0.407
ElecMinimize: Iter:  36  F: -7040.507799132669788  |grad|_K:  1.663e-06  alpha:  1.148e-01  linmin:  2.797e-07  t[s]:    684.12
	FillingsUpdate:  mu: -0.107430326  nElectrons: 1122.000000
	SubspaceRotationAdjust: set factor to 0.423
ElecMinimize: Iter:  37  F: -7040.507837529217795  |grad|_K:  1.417e-06  alpha:  9.098e-02  linmin:  2.495e-07  t[s]:    696.16
	FillingsUpdate:  mu: -0.107429725  nElectrons: 1122.000000
	SubspaceRotationAdjust: set factor to 0.472
ElecMinimize: Iter:  38  F: -7040.507868199388213  |grad|_K:  1.117e-06  alpha:  1.002e-01  linmin:  2.357e-07  t[s]:    708.15
	FillingsUpdate:  mu: -0.107402058  nElectrons: 1122.000000
	SubspaceRotationAdjust: set factor to 0.438
ElecMinimize: Iter:  39  F: -7040.507887015725828  |grad|_K:  1.150e-06  alpha:  9.895e-02  linmin:  1.131e-07  t[s]:    720.24
	FillingsUpdate:  mu: -0.107446571  nElectrons: 1122.000000
	SubspaceRotationAdjust: set factor to 0.445
ElecMinimize: Iter:  40  F: -7040.507904826183221  |grad|_K:  9.481e-07  alpha:  8.830e-02  linmin:  1.310e-07  t[s]:    732.21
	FillingsUpdate:  mu: -0.107451157  nElectrons: 1122.000000
	SubspaceRotationAdjust: set factor to 0.427
ElecMinimize: Iter:  41  F: -7040.507919461954771  |grad|_K:  7.947e-07  alpha:  1.068e-01  linmin:  2.057e-07  t[s]:    744.26
	FillingsUpdate:  mu: -0.107408689  nElectrons: 1122.000000
	SubspaceRotationAdjust: set factor to 0.412
ElecMinimize: Iter:  42  F: -7040.507926874302939  |grad|_K:  6.676e-07  alpha:  7.697e-02  linmin:  4.249e-08  t[s]:    756.28
	FillingsUpdate:  mu: -0.107418582  nElectrons: 1122.000000
	SubspaceRotationAdjust: set factor to 0.428
ElecMinimize: Iter:  43  F: -7040.507934061863125  |grad|_K:  5.702e-07  alpha:  1.057e-01  linmin:  5.839e-08  t[s]:    768.34
	FillingsUpdate:  mu: -0.107454544  nElectrons: 1122.000000
	SubspaceRotationAdjust: set factor to 0.364
ElecMinimize: Iter:  44  F: -7040.507939549580442  |grad|_K:  5.782e-07  alpha:  1.106e-01  linmin:  4.574e-08  t[s]:    780.32
	FillingsUpdate:  mu: -0.107434827  nElectrons: 1122.000000
	SubspaceRotationAdjust: set factor to 0.407
ElecMinimize: Iter:  45  F: -7040.507943890164825  |grad|_K:  4.491e-07  alpha:  8.511e-02  linmin:  2.718e-08  t[s]:    792.37
	FillingsUpdate:  mu: -0.107404433  nElectrons: 1122.000000
	SubspaceRotationAdjust: set factor to 0.429
ElecMinimize: Iter:  46  F: -7040.507947439854433  |grad|_K:  3.596e-07  alpha:  1.154e-01  linmin:  3.855e-08  t[s]:    804.36
	FillingsUpdate:  mu: -0.107402902  nElectrons: 1122.000000
	SubspaceRotationAdjust: set factor to 0.394
ElecMinimize: Iter:  47  F: -7040.507948916606438  |grad|_K:  3.018e-07  alpha:  7.484e-02  linmin:  1.731e-08  t[s]:    816.42
	FillingsUpdate:  mu: -0.107388110  nElectrons: 1122.000000
	SubspaceRotationAdjust: set factor to 0.464
ElecMinimize: Iter:  48  F: -7040.507950556107971  |grad|_K:  2.596e-07  alpha:  1.180e-01  linmin:  5.832e-08  t[s]:    828.42
	FillingsUpdate:  mu: -0.107392167  nElectrons: 1122.000000
	SubspaceRotationAdjust: set factor to 0.412
ElecMinimize: Iter:  49  F: -7040.507951570165460  |grad|_K:  2.548e-07  alpha:  9.862e-02  linmin:  2.496e-08  t[s]:    840.44
	FillingsUpdate:  mu: -0.107426182  nElectrons: 1122.000000
	SubspaceRotationAdjust: set factor to 0.431
ElecMinimize: Iter:  50  F: -7040.507952424851283  |grad|_K:  1.962e-07  alpha:  8.630e-02  linmin:  4.044e-08  t[s]:    852.47
	FillingsUpdate:  mu: -0.107447756  nElectrons: 1122.000000
	SubspaceRotationAdjust: set factor to 0.427
ElecMinimize: Iter:  51  F: -7040.507953060943692  |grad|_K:  1.778e-07  alpha:  1.084e-01  linmin:  4.869e-09  t[s]:    864.51
	FillingsUpdate:  mu: -0.107445000  nElectrons: 1122.000000
	SubspaceRotationAdjust: set factor to 0.432
ElecMinimize: Iter:  52  F: -7040.507953504557918  |grad|_K:  1.624e-07  alpha:  9.188e-02  linmin:  3.138e-08  t[s]:    876.50
	FillingsUpdate:  mu: -0.107440515  nElectrons: 1122.000000
	SubspaceRotationAdjust: set factor to 0.461
ElecMinimize: Iter:  53  F: -7040.507953917297527  |grad|_K:  1.326e-07  alpha:  1.026e-01  linmin: -9.843e-09  t[s]:    888.55
	FillingsUpdate:  mu: -0.107434450  nElectrons: 1122.000000
	SubspaceRotationAdjust: set factor to 0.442
ElecMinimize: Iter:  54  F: -7040.507954172885547  |grad|_K:  1.241e-07  alpha:  9.533e-02  linmin:  3.301e-08  t[s]:    900.55
	FillingsUpdate:  mu: -0.107423786  nElectrons: 1122.000000
	SubspaceRotationAdjust: set factor to 0.473
ElecMinimize: Iter:  55  F: -7040.507954387843711  |grad|_K:  1.064e-07  alpha:  9.154e-02  linmin:  4.007e-08  t[s]:    912.58
	FillingsUpdate:  mu: -0.107421540  nElectrons: 1122.000000
	SubspaceRotationAdjust: set factor to 0.478
ElecMinimize: Iter:  56  F: -7040.507954563740896  |grad|_K:  9.417e-08  alpha:  1.019e-01  linmin:  4.898e-08  t[s]:    924.60
	FillingsUpdate:  mu: -0.107424912  nElectrons: 1122.000000
	SubspaceRotationAdjust: set factor to 0.453
ElecMinimize: Iter:  57  F: -7040.507954684700962  |grad|_K:  8.635e-08  alpha:  8.947e-02  linmin: -1.017e-08  t[s]:    936.67
	FillingsUpdate:  mu: -0.107427785  nElectrons: 1122.000000
	SubspaceRotationAdjust: set factor to 0.463
ElecMinimize: Iter:  58  F: -7040.507954784243339  |grad|_K:  7.224e-08  alpha:  8.764e-02  linmin:  1.067e-07  t[s]:    948.66
	FillingsUpdate:  mu: -0.107433309  nElectrons: 1122.000000
	SubspaceRotationAdjust: set factor to 0.482
ElecMinimize: Iter:  59  F: -7040.507954875976793  |grad|_K:  6.941e-08  alpha:  1.157e-01  linmin:  1.565e-07  t[s]:    960.72
	FillingsUpdate:  mu: -0.107435792  nElectrons: 1122.000000
	SubspaceRotationAdjust: set factor to 0.433
ElecMinimize: Iter:  60  F: -7040.507954931652421  |grad|_K:  5.746e-08  alpha:  7.622e-02  linmin:  3.873e-08  t[s]:    972.74
	FillingsUpdate:  mu: -0.107431897  nElectrons: 1122.000000
	SubspaceRotationAdjust: set factor to 0.474
ElecMinimize: Iter:  61  F: -7040.507954983786476  |grad|_K:  4.665e-08  alpha:  1.042e-01  linmin:  3.857e-07  t[s]:    984.77
	FillingsUpdate:  mu: -0.107427418  nElectrons: 1122.000000
	SubspaceRotationAdjust: set factor to 0.454
ElecMinimize: Iter:  62  F: -7040.507955015996231  |grad|_K:  4.625e-08  alpha:  9.771e-02  linmin:  1.895e-08  t[s]:    996.77
	FillingsUpdate:  mu: -0.107425865  nElectrons: 1122.000000
	SubspaceRotationAdjust: set factor to 0.437
ElecMinimize: Iter:  63  F: -7040.507955045107337  |grad|_K:  3.778e-08  alpha:  8.957e-02  linmin: -1.532e-08  t[s]:   1008.81
	FillingsUpdate:  mu: -0.107428070  nElectrons: 1122.000000
	SubspaceRotationAdjust: set factor to 0.473
ElecMinimize: Iter:  64  F: -7040.507955069289892  |grad|_K:  3.286e-08  alpha:  1.106e-01  linmin: -3.518e-08  t[s]:   1020.80
	FillingsUpdate:  mu: -0.107429976  nElectrons: 1122.000000
	SubspaceRotationAdjust: set factor to 0.426
ElecMinimize: Iter:  65  F: -7040.507955083392517  |grad|_K:  2.981e-08  alpha:  8.633e-02  linmin:  1.162e-07  t[s]:   1032.84
	FillingsUpdate:  mu: -0.107431766  nElectrons: 1122.000000
	SubspaceRotationAdjust: set factor to 0.431
ElecMinimize: Iter:  66  F: -7040.507955097269587  |grad|_K:  2.456e-08  alpha:  1.044e-01  linmin:  3.614e-07  t[s]:   1044.85
	FillingsUpdate:  mu: -0.107430881  nElectrons: 1122.000000
	SubspaceRotationAdjust: set factor to 0.429
ElecMinimize: Iter:  67  F: -7040.507955107722410  |grad|_K:  2.368e-08  alpha:  1.153e-01  linmin: -1.011e-07  t[s]:   1056.93
	FillingsUpdate:  mu: -0.107429436  nElectrons: 1122.000000
	SubspaceRotationAdjust: set factor to 0.403
ElecMinimize: Iter:  68  F: -7040.507955115612276  |grad|_K:  2.009e-08  alpha:  9.008e-02  linmin:  1.684e-07  t[s]:   1068.95
	FillingsUpdate:  mu: -0.107429775  nElectrons: 1122.000000
	SubspaceRotationAdjust: set factor to 0.433
ElecMinimize: Iter:  69  F: -7040.507955122894600  |grad|_K:  1.765e-08  alpha:  1.186e-01  linmin: -4.003e-07  t[s]:   1081.01
ElecMinimize: Converged (|Delta F|<1.000000e-08 for 2 iters).
Setting wave functions to eigenvectors of Hamiltonian
Vacuum energy after initial minimize, F = -7040.507955122894600


-------- Electronic minimization -----------
	Linear fluid (dielectric constant: 64) occupying 0.817726 of unit cell:	Completed after 42 iterations at t[s]:   1083.35
	FillingsUpdate:  mu: -0.103736844  nElectrons: 1122.000000
ElecMinimize: Iter:   0  F: -7040.688830239292656  |grad|_K:  4.355e-05  alpha:  1.000e+00
	Linear fluid (dielectric constant: 64) occupying 0.818295 of unit cell:	Completed after 44 iterations at t[s]:   1094.05
	Linear fluid (dielectric constant: 64) occupying 0.817773 of unit cell:	Completed after 43 iterations at t[s]:   1098.18
	FillingsUpdate:  mu: -0.111150236  nElectrons: 1122.000000
	SubspaceRotationAdjust: set factor to 0.402
ElecMinimize: Iter:   1  F: -7040.720482272906338  |grad|_K:  3.041e-05  alpha:  1.002e-01  linmin: -1.239e-03  t[s]:   1103.14
	Linear fluid (dielectric constant: 64) occupying 0.817892 of unit cell:	Completed after 25 iterations at t[s]:   1107.78
	Linear fluid (dielectric constant: 64) occupying 0.818082 of unit cell:	Completed after 27 iterations at t[s]:   1111.53
	FillingsUpdate:  mu: -0.108790199  nElectrons: 1122.000000
	SubspaceRotationAdjust: set factor to 0.365
ElecMinimize: Iter:   2  F: -7040.760644554101418  |grad|_K:  3.024e-05  alpha:  2.594e-01  linmin: -1.370e-04  t[s]:   1116.51
	Linear fluid (dielectric constant: 64) occupying 0.818635 of unit cell:	Completed after 33 iterations at t[s]:   1121.31
	Linear fluid (dielectric constant: 64) occupying 0.818751 of unit cell:	Completed after 23 iterations at t[s]:   1124.99
	FillingsUpdate:  mu: -0.091917331  nElectrons: 1122.000000
	SubspaceRotationAdjust: set factor to 0.351
ElecMinimize: Iter:   3  F: -7040.805681951044789  |grad|_K:  3.261e-05  alpha:  3.141e-01  linmin: -7.414e-05  t[s]:   1129.96
	Linear fluid (dielectric constant: 64) occupying 0.819500 of unit cell:	Completed after 38 iterations at t[s]:   1134.81
	Linear fluid (dielectric constant: 64) occupying 0.819144 of unit cell:	Completed after 31 iterations at t[s]:   1138.70
	FillingsUpdate:  mu: -0.091170843  nElectrons: 1122.000000
	SubspaceRotationAdjust: set factor to 0.282
ElecMinimize: Iter:   4  F: -7040.832496164533040  |grad|_K:  2.533e-05  alpha:  1.613e-01  linmin: -3.808e-06  t[s]:   1143.68
	Linear fluid (dielectric constant: 64) occupying 0.819320 of unit cell:	Completed after 29 iterations at t[s]:   1148.37
	Linear fluid (dielectric constant: 64) occupying 0.819301 of unit cell:	Completed after 15 iterations at t[s]:   1151.93
	FillingsUpdate:  mu: -0.095202218  nElectrons: 1122.000000
	SubspaceRotationAdjust: set factor to 0.221
ElecMinimize: Iter:   5  F: -7040.846487550903475  |grad|_K:  1.767e-05  alpha:  1.428e-01  linmin: -3.229e-06  t[s]:   1156.87
	Linear fluid (dielectric constant: 64) occupying 0.819333 of unit cell:	Completed after 22 iterations at t[s]:   1161.46
	Linear fluid (dielectric constant: 64) occupying 0.819362 of unit cell:	Completed after 25 iterations at t[s]:   1165.20
	FillingsUpdate:  mu: -0.094468153  nElectrons: 1122.000000
	SubspaceRotationAdjust: set factor to 0.249
ElecMinimize: Iter:   6  F: -7040.864360703221791  |grad|_K:  1.542e-05  alpha:  3.723e-01  linmin: -2.961e-05  t[s]:   1170.11
	Linear fluid (dielectric constant: 64) occupying 0.819282 of unit cell:	Completed after 29 iterations at t[s]:   1174.82
	Linear fluid (dielectric constant: 64) occupying 0.819330 of unit cell:	Completed after 24 iterations at t[s]:   1178.52
	FillingsUpdate:  mu: -0.093126539  nElectrons: 1122.000000
	SubspaceRotationAdjust: set factor to 0.219
ElecMinimize: Iter:   7  F: -7040.871154821807977  |grad|_K:  1.077e-05  alpha:  1.859e-01  linmin:  2.411e-06  t[s]:   1183.46
	Linear fluid (dielectric constant: 64) occupying 0.819278 of unit cell:	Completed after 19 iterations at t[s]:   1188.03
	Linear fluid (dielectric constant: 64) occupying 0.819237 of unit cell:	Completed after 19 iterations at t[s]:   1191.68
	FillingsUpdate:  mu: -0.093106421  nElectrons: 1122.000000
	SubspaceRotationAdjust: set factor to 0.229
ElecMinimize: Iter:   8  F: -7040.876839412195295  |grad|_K:  1.031e-05  alpha:  3.211e-01  linmin: -6.231e-06  t[s]:   1196.55
	Linear fluid (dielectric constant: 64) occupying 0.819115 of unit cell:	Completed after 28 iterations at t[s]:   1201.36
	Linear fluid (dielectric constant: 64) occupying 0.819169 of unit cell:	Completed after 22 iterations at t[s]:   1205.13
	FillingsUpdate:  mu: -0.092795250  nElectrons: 1122.000000
	SubspaceRotationAdjust: set factor to 0.187
ElecMinimize: Iter:   9  F: -7040.879862365257395  |grad|_K:  7.650e-06  alpha:  1.862e-01  linmin: -8.021e-07  t[s]:   1210.17
	Linear fluid (dielectric constant: 64) occupying 0.819123 of unit cell:	Completed after 21 iterations at t[s]:   1214.73
	Linear fluid (dielectric constant: 64) occupying 0.819078 of unit cell:	Completed after 21 iterations at t[s]:   1218.46
	FillingsUpdate:  mu: -0.091371723  nElectrons: 1122.000000
	SubspaceRotationAdjust: set factor to 0.179
ElecMinimize: Iter:  10  F: -7040.883058153170168  |grad|_K:  5.867e-06  alpha:  3.582e-01  linmin:  2.399e-08  t[s]:   1223.43
	Linear fluid (dielectric constant: 64) occupying 0.819018 of unit cell:	Completed after 21 iterations at t[s]:   1227.99
	Linear fluid (dielectric constant: 64) occupying 0.819020 of unit cell:	Completed after 4 iterations at t[s]:   1231.40
	FillingsUpdate:  mu: -0.091745897  nElectrons: 1122.000000
	SubspaceRotationAdjust: set factor to 0.186
ElecMinimize: Iter:  11  F: -7040.884870385353679  |grad|_K:  6.106e-06  alpha:  3.451e-01  linmin: -2.666e-06  t[s]:   1236.34
	Linear fluid (dielectric constant: 64) occupying 0.818959 of unit cell:	Completed after 24 iterations at t[s]:   1240.97
	Linear fluid (dielectric constant: 64) occupying 0.818977 of unit cell:	Completed after 15 iterations at t[s]:   1244.49
	FillingsUpdate:  mu: -0.091906061  nElectrons: 1122.000000
	SubspaceRotationAdjust: set factor to 0.165
ElecMinimize: Iter:  12  F: -7040.886274170554316  |grad|_K:  4.388e-06  alpha:  2.467e-01  linmin: -2.333e-06  t[s]:   1249.43
	Linear fluid (dielectric constant: 64) occupying 0.818965 of unit cell:	Completed after 18 iterations at t[s]:   1253.95
	Linear fluid (dielectric constant: 64) occupying 0.818959 of unit cell:	Completed after 12 iterations at t[s]:   1257.46
	FillingsUpdate:  mu: -0.090901928  nElectrons: 1122.000000
	SubspaceRotationAdjust: set factor to 0.163
ElecMinimize: Iter:  13  F: -7040.887322824110015  |grad|_K:  4.485e-06  alpha:  3.561e-01  linmin: -5.234e-06  t[s]:   1262.38
	Linear fluid (dielectric constant: 64) occupying 0.818950 of unit cell:	Completed after 20 iterations at t[s]:   1266.92
	Linear fluid (dielectric constant: 64) occupying 0.818952 of unit cell:	Completed after 10 iterations at t[s]:   1270.38
	FillingsUpdate:  mu: -0.090985517  nElectrons: 1122.000000
	SubspaceRotationAdjust: set factor to 0.166
ElecMinimize: Iter:  14  F: -7040.888207059972956  |grad|_K:  3.224e-06  alpha:  2.873e-01  linmin: -1.628e-06  t[s]:   1275.30
	Linear fluid (dielectric constant: 64) occupying 0.818955 of unit cell:	Completed after 16 iterations at t[s]:   1279.78
	Linear fluid (dielectric constant: 64) occupying 0.818956 of unit cell:	Completed after 6 iterations at t[s]:   1283.24
	FillingsUpdate:  mu: -0.091559713  nElectrons: 1122.000000
	SubspaceRotationAdjust: set factor to 0.166
ElecMinimize: Iter:  15  F: -7040.888802266438688  |grad|_K:  3.397e-06  alpha:  3.751e-01  linmin: -1.253e-06  t[s]:   1288.25
	Linear fluid (dielectric constant: 64) occupying 0.818969 of unit cell:	Completed after 20 iterations at t[s]:   1292.84
	Linear fluid (dielectric constant: 64) occupying 0.818966 of unit cell:	Completed after 11 iterations at t[s]:   1296.41
	FillingsUpdate:  mu: -0.090701533  nElectrons: 1122.000000
	SubspaceRotationAdjust: set factor to 0.152
ElecMinimize: Iter:  16  F: -7040.889262796361436  |grad|_K:  2.328e-06  alpha:  2.629e-01  linmin: -5.089e-06  t[s]:   1301.46
	Linear fluid (dielectric constant: 64) occupying 0.818968 of unit cell:	Completed after 12 iterations at t[s]:   1305.97
	Linear fluid (dielectric constant: 64) occupying 0.818968 of unit cell:	Completed after 8 iterations at t[s]:   1309.45
	FillingsUpdate:  mu: -0.090671896  nElectrons: 1122.000000
	SubspaceRotationAdjust: set factor to 0.15
ElecMinimize: Iter:  17  F: -7040.889560685474862  |grad|_K:  2.381e-06  alpha:  3.595e-01  linmin: -9.787e-07  t[s]:   1314.45
	Linear fluid (dielectric constant: 64) occupying 0.818968 of unit cell:	Completed after 15 iterations at t[s]:   1318.92
	Linear fluid (dielectric constant: 64) occupying 0.818968 of unit cell:	Completed after 5 iterations at t[s]:   1322.28
	FillingsUpdate:  mu: -0.090949398  nElectrons: 1122.000000
	SubspaceRotationAdjust: set factor to 0.146
ElecMinimize: Iter:  18  F: -7040.889801378938500  |grad|_K:  1.642e-06  alpha:  2.790e-01  linmin: -2.620e-06  t[s]:   1327.28
	Linear fluid (dielectric constant: 64) occupying 0.818970 of unit cell:	Completed after 11 iterations at t[s]:   1331.68
	Linear fluid (dielectric constant: 64) occupying 0.818971 of unit cell:	Completed after 5 iterations at t[s]:   1335.01
	FillingsUpdate:  mu: -0.090628799  nElectrons: 1122.000000
	SubspaceRotationAdjust: set factor to 0.147
ElecMinimize: Iter:  19  F: -7040.889953143482671  |grad|_K:  1.447e-06  alpha:  3.686e-01  linmin: -4.087e-06  t[s]:   1340.00
	Linear fluid (dielectric constant: 64) occupying 0.818975 of unit cell:	Completed after 14 iterations at t[s]:   1344.44
	Linear fluid (dielectric constant: 64) occupying 0.818974 of unit cell:	Completed after 5 iterations at t[s]:   1347.76
	FillingsUpdate:  mu: -0.090534639  nElectrons: 1122.000000
	SubspaceRotationAdjust: set factor to 0.142
ElecMinimize: Iter:  20  F: -7040.890036772473650  |grad|_K:  1.183e-06  alpha:  2.633e-01  linmin: -3.759e-06  t[s]:   1352.72
	Linear fluid (dielectric constant: 64) occupying 0.818978 of unit cell:	Completed after 8 iterations at t[s]:   1357.08
	Linear fluid (dielectric constant: 64) occupying 0.818979 of unit cell:	Completed after 5 iterations at t[s]:   1360.42
	FillingsUpdate:  mu: -0.090634363  nElectrons: 1122.000000
	SubspaceRotationAdjust: set factor to 0.143
ElecMinimize: Iter:  21  F: -7040.890112727795895  |grad|_K:  9.550e-07  alpha:  3.554e-01  linmin:  1.284e-06  t[s]:   1365.39
	Linear fluid (dielectric constant: 64) occupying 0.818987 of unit cell:	Completed after 11 iterations at t[s]:   1369.79
	Linear fluid (dielectric constant: 64) occupying 0.818986 of unit cell:	Completed after 3 iterations at t[s]:   1373.12
	FillingsUpdate:  mu: -0.090386014  nElectrons: 1122.000000
	SubspaceRotationAdjust: set factor to 0.147
ElecMinimize: Iter:  22  F: -7040.890153074838054  |grad|_K:  7.976e-07  alpha:  2.927e-01  linmin: -8.225e-06  t[s]:   1378.11
	Linear fluid (dielectric constant: 64) occupying 0.818992 of unit cell:	Completed after 5 iterations at t[s]:   1382.44
	Linear fluid (dielectric constant: 64) occupying 0.818992 of unit cell:	Completed after 0 iterations at t[s]:   1385.67
	FillingsUpdate:  mu: -0.090473570  nElectrons: 1122.000000
	SubspaceRotationAdjust: set factor to 0.146
ElecMinimize: Iter:  23  F: -7040.890182983034720  |grad|_K:  6.707e-07  alpha:  3.053e-01  linmin: -2.778e-05  t[s]:   1390.62
	Linear fluid (dielectric constant: 64) occupying 0.818998 of unit cell:	Completed after 5 iterations at t[s]:   1394.96
	Linear fluid (dielectric constant: 64) occupying 0.818999 of unit cell:	Completed after 0 iterations at t[s]:   1398.20
	FillingsUpdate:  mu: -0.090530064  nElectrons: 1122.000000
	SubspaceRotationAdjust: set factor to 0.159
ElecMinimize: Iter:  24  F: -7040.890207226095299  |grad|_K:  5.467e-07  alpha:  3.409e-01  linmin: -4.157e-05  t[s]:   1403.17
	Linear fluid (dielectric constant: 64) occupying 0.819005 of unit cell:	Completed after 10 iterations at t[s]:   1407.65
	Linear fluid (dielectric constant: 64) occupying 0.819005 of unit cell:	Completed after 0 iterations at t[s]:   1410.94
	FillingsUpdate:  mu: -0.090368978  nElectrons: 1122.000000
	SubspaceRotationAdjust: set factor to 0.167
ElecMinimize: Iter:  25  F: -7040.890221680311697  |grad|_K:  5.480e-07  alpha:  3.045e-01  linmin: -7.246e-06  t[s]:   1415.90
	Linear fluid (dielectric constant: 64) occupying 0.819010 of unit cell:	Completed after 6 iterations at t[s]:   1420.34
	Linear fluid (dielectric constant: 64) occupying 0.819009 of unit cell:	Completed after 3 iterations at t[s]:   1423.65
	FillingsUpdate:  mu: -0.090366624  nElectrons: 1122.000000
	SubspaceRotationAdjust: set factor to 0.159
ElecMinimize: Iter:  26  F: -7040.890231809386023  |grad|_K:  4.227e-07  alpha:  2.270e-01  linmin: -1.113e-05  t[s]:   1428.64
	Linear fluid (dielectric constant: 64) occupying 0.819012 of unit cell:	Completed after 4 iterations at t[s]:   1432.98
	Linear fluid (dielectric constant: 64) occupying 0.819013 of unit cell:	Completed after 3 iterations at t[s]:   1436.29
	FillingsUpdate:  mu: -0.090399317  nElectrons: 1122.000000
	SubspaceRotationAdjust: set factor to 0.178
ElecMinimize: Iter:  27  F: -7040.890240857372191  |grad|_K:  3.712e-07  alpha:  3.244e-01  linmin: -1.005e-05  t[s]:   1441.28
	Linear fluid (dielectric constant: 64) occupying 0.819017 of unit cell:	Completed after 4 iterations at t[s]:   1445.59
	Linear fluid (dielectric constant: 64) occupying 0.819017 of unit cell:	Completed after 0 iterations at t[s]:   1448.86
	FillingsUpdate:  mu: -0.090327453  nElectrons: 1122.000000
	SubspaceRotationAdjust: set factor to 0.166
ElecMinimize: Iter:  28  F: -7040.890247639584231  |grad|_K:  3.525e-07  alpha:  3.178e-01  linmin: -1.374e-06  t[s]:   1456.30
	Linear fluid (dielectric constant: 64) occupying 0.819021 of unit cell:	Completed after 5 iterations at t[s]:   1465.02
	Linear fluid (dielectric constant: 64) occupying 0.819020 of unit cell:	Completed after 2 iterations at t[s]:   1468.33
	FillingsUpdate:  mu: -0.090299793  nElectrons: 1122.000000
	SubspaceRotationAdjust: set factor to 0.172
ElecMinimize: Iter:  29  F: -7040.890251821002494  |grad|_K:  2.608e-07  alpha:  2.351e-01  linmin: -1.223e-05  t[s]:   1473.22
	Linear fluid (dielectric constant: 64) occupying 0.819022 of unit cell:	Completed after 3 iterations at t[s]:   1477.48
	Linear fluid (dielectric constant: 64) occupying 0.819023 of unit cell:	Completed after 0 iterations at t[s]:   1480.72
	FillingsUpdate:  mu: -0.090315181  nElectrons: 1122.000000
	SubspaceRotationAdjust: set factor to 0.19
ElecMinimize: Iter:  30  F: -7040.890255506714311  |grad|_K:  1.975e-07  alpha:  3.235e-01  linmin: -6.751e-05  t[s]:   1485.72
	Linear fluid (dielectric constant: 64) occupying 0.819025 of unit cell:	Completed after 4 iterations at t[s]:   1490.01
	Linear fluid (dielectric constant: 64) occupying 0.819025 of unit cell:	Completed after 0 iterations at t[s]:   1493.23
	FillingsUpdate:  mu: -0.090317956  nElectrons: 1122.000000
	SubspaceRotationAdjust: set factor to 0.199
ElecMinimize: Iter:  31  F: -7040.890257210555319  |grad|_K:  2.322e-07  alpha:  2.525e-01  linmin: -9.585e-06  t[s]:   1498.18
	Linear fluid (dielectric constant: 64) occupying 0.819027 of unit cell:	Completed after 4 iterations at t[s]:   1502.52
	Linear fluid (dielectric constant: 64) occupying 0.819026 of unit cell:	Completed after 2 iterations at t[s]:   1505.79
	FillingsUpdate:  mu: -0.090278470  nElectrons: 1122.000000
	SubspaceRotationAdjust: set factor to 0.187
ElecMinimize: Iter:  32  F: -7040.890258195276147  |grad|_K:  1.707e-07  alpha:  1.379e-01  linmin:  5.100e-06  t[s]:   1510.77
	Linear fluid (dielectric constant: 64) occupying 0.819027 of unit cell:	Completed after 1 iterations at t[s]:   1515.09
	Linear fluid (dielectric constant: 64) occupying 0.819028 of unit cell:	Completed after 0 iterations at t[s]:   1518.31
	FillingsUpdate:  mu: -0.090274662  nElectrons: 1122.000000
	SubspaceRotationAdjust: set factor to 0.246
ElecMinimize: Iter:  33  F: -7040.890259509190400  |grad|_K:  1.276e-07  alpha:  2.389e-01  linmin: -8.583e-05  t[s]:   1523.26
	Linear fluid (dielectric constant: 64) occupying 0.819028 of unit cell:	Completed after 3 iterations at t[s]:   1527.68
	Linear fluid (dielectric constant: 64) occupying 0.819028 of unit cell:	Completed after 0 iterations at t[s]:   1530.92
	FillingsUpdate:  mu: -0.090281198  nElectrons: 1122.000000
	SubspaceRotationAdjust: set factor to 0.233
ElecMinimize: Iter:  34  F: -7040.890259773242178  |grad|_K:  1.822e-07  alpha:  1.268e-01  linmin:  1.983e-05  t[s]:   1535.87
	Linear fluid (dielectric constant: 64) occupying 0.819029 of unit cell:	Completed after 3 iterations at t[s]:   1540.23
	Linear fluid (dielectric constant: 64) occupying 0.819028 of unit cell:	Completed after 0 iterations at t[s]:   1543.47
	FillingsUpdate:  mu: -0.090269785  nElectrons: 1122.000000
	SubspaceRotationAdjust: set factor to 0.3
ElecMinimize: Iter:  35  F: -7040.890260037423104  |grad|_K:  1.255e-07  alpha:  8.584e-02  linmin: -1.343e-05  t[s]:   1548.40
	Linear fluid (dielectric constant: 64) occupying 0.819029 of unit cell:	Completed after 0 iterations at t[s]:   1552.64
ElecMinimize: 	Predicted alpha/alphaT>3.000000, increasing alphaT to 2.575190e-01.
	Linear fluid (dielectric constant: 64) occupying 0.819029 of unit cell:	Completed after 2 iterations at t[s]:   1555.95
	Linear fluid (dielectric constant: 64) occupying 0.819029 of unit cell:	Completed after 0 iterations at t[s]:   1559.14
	FillingsUpdate:  mu: -0.090251652  nElectrons: 1122.000000
	SubspaceRotationAdjust: set factor to 0.316
ElecMinimize: Iter:  36  F: -7040.890260605875483  |grad|_K:  1.103e-07  alpha:  2.139e-01  linmin:  9.709e-07  t[s]:   1564.08
	Linear fluid (dielectric constant: 64) occupying 0.819029 of unit cell:	Completed after 0 iterations at t[s]:   1568.29
	Linear fluid (dielectric constant: 64) occupying 0.819029 of unit cell:	Completed after 3 iterations at t[s]:   1571.55
ElecMinimize: 	Step increased F by 8.511415e-08, reducing alpha to 4.035674e-02.
	Linear fluid (dielectric constant: 64) occupying 0.819029 of unit cell:	Completed after 2 iterations at t[s]:   1579.38
	FillingsUpdate:  mu: -0.090233784  nElectrons: 1122.000000
	SubspaceRotationAdjust: set factor to 0.395
ElecMinimize: Iter:  37  F: -7040.890260722059793  |grad|_K:  8.636e-08  alpha:  4.036e-02  linmin: -5.824e-05  t[s]:   1584.35
	Linear fluid (dielectric constant: 64) occupying 0.819029 of unit cell:	Completed after 0 iterations at t[s]:   1588.58
ElecMinimize: 	Predicted alpha/alphaT>3.000000, increasing alphaT to 1.210702e-01.
	Linear fluid (dielectric constant: 64) occupying 0.819029 of unit cell:	Completed after 0 iterations at t[s]:   1591.83
	Linear fluid (dielectric constant: 64) occupying 0.819028 of unit cell:	Completed after 0 iterations at t[s]:   1595.06
	FillingsUpdate:  mu: -0.090229941  nElectrons: 1122.000000
	SubspaceRotationAdjust: set factor to 0.464
ElecMinimize: Iter:  38  F: -7040.890261211266989  |grad|_K:  7.597e-08  alpha:  2.127e-01  linmin: -5.823e-05  t[s]:   1600.02
	Linear fluid (dielectric constant: 64) occupying 0.819028 of unit cell:	Completed after 3 iterations at t[s]:   1604.32
	Linear fluid (dielectric constant: 64) occupying 0.819028 of unit cell:	Completed after 0 iterations at t[s]:   1607.55
	FillingsUpdate:  mu: -0.090279299  nElectrons: 1122.000000
	SubspaceRotationAdjust: set factor to 0.366
ElecMinimize: Iter:  39  F: -7040.890261237640516  |grad|_K:  1.516e-07  alpha:  7.983e-02  linmin:  2.775e-05  t[s]:   1612.49
	Linear fluid (dielectric constant: 64) occupying 0.819027 of unit cell:	Completed after 0 iterations at t[s]:   1616.74
	Linear fluid (dielectric constant: 64) occupying 0.819028 of unit cell:	Completed after 0 iterations at t[s]:   1619.94
	FillingsUpdate:  mu: -0.090279089  nElectrons: 1122.000000
	SubspaceRotationAdjust: set factor to 0.318
ElecMinimize: Iter:  40  F: -7040.890261247672242  |grad|_K:  1.412e-07  alpha:  1.612e-02  linmin:  9.938e-10  t[s]:   1624.89
	Linear fluid (dielectric constant: 64) occupying 0.819028 of unit cell:	Completed after 0 iterations at t[s]:   1629.13
ElecMinimize: 	Predicted alpha/alphaT>3.000000, increasing alphaT to 4.834602e-02.
	Linear fluid (dielectric constant: 64) occupying 0.819027 of unit cell:	Completed after 0 iterations at t[s]:   1632.41
	Linear fluid (dielectric constant: 64) occupying 0.819027 of unit cell:	Completed after 0 iterations at t[s]:   1635.63
	FillingsUpdate:  mu: -0.090278131  nElectrons: 1122.000000
	SubspaceRotationAdjust: set factor to 0.383
ElecMinimize: Iter:  41  F: -7040.890261560401086  |grad|_K:  1.546e-07  alpha:  1.028e-01  linmin: -2.104e-08  t[s]:   1640.55
	Linear fluid (dielectric constant: 64) occupying 0.819025 of unit cell:	Completed after 4 iterations at t[s]:   1644.84
	Linear fluid (dielectric constant: 64) occupying 0.819027 of unit cell:	Completed after 2 iterations at t[s]:   1651.29
ElecMinimize: 	Step increased F by 3.322320e-07, reducing alpha to 1.502878e-03.
	Linear fluid (dielectric constant: 64) occupying 0.819027 of unit cell:	Completed after 0 iterations at t[s]:   1661.10
ElecMinimize: 	Step increased F by 2.041488e-07, reducing alpha to 1.502878e-04.
	Linear fluid (dielectric constant: 64) occupying 0.819027 of unit cell:	Completed after 0 iterations at t[s]:   1671.21
ElecMinimize: 	Step increased F by 1.919061e-07, reducing alpha to 1.502878e-05.
ElecMinimize: 	Step failed to reduce F after 3 attempts. Quitting step.
ElecMinimize: 	Undoing step.
	Linear fluid (dielectric constant: 64) occupying 0.819027 of unit cell:	Completed after 0 iterations at t[s]:   1678.98
ElecMinimize: 	Step failed: resetting search direction.
	FillingsUpdate:  mu: -0.090270121  nElectrons: 1122.000000
	SubspaceRotationAdjust: set factor to 0.338
ElecMinimize: Iter:  42  F: -7040.890261368710526  |grad|_K:  1.790e-07  alpha:  1.503e-05
	Linear fluid (dielectric constant: 64) occupying 0.819027 of unit cell:	Completed after 3 iterations at t[s]:   1688.12
	Linear fluid (dielectric constant: 64) occupying 0.819027 of unit cell:	Completed after 0 iterations at t[s]:   1691.38
	FillingsUpdate:  mu: -0.090260079  nElectrons: 1122.000000
	SubspaceRotationAdjust: set factor to 0.216
ElecMinimize: Iter:  43  F: -7040.890261485397787  |grad|_K:  1.564e-07  alpha:  4.827e-02  linmin:  2.704e-04  t[s]:   1696.34
	Linear fluid (dielectric constant: 64) occupying 0.819027 of unit cell:	Completed after 0 iterations at t[s]:   1700.52
ElecMinimize: 	Predicted alpha/alphaT>3.000000, increasing alphaT to 1.448106e-01.
	Linear fluid (dielectric constant: 64) occupying 0.819027 of unit cell:	Completed after 0 iterations at t[s]:   1703.83
	Linear fluid (dielectric constant: 64) occupying 0.819027 of unit cell:	Completed after 2 iterations at t[s]:   1707.09
	FillingsUpdate:  mu: -0.090228925  nElectrons: 1122.000000
	SubspaceRotationAdjust: set factor to 0.259
ElecMinimize: Iter:  44  F: -7040.890261646167346  |grad|_K:  8.403e-08  alpha:  2.407e-01  linmin:  1.898e-04  t[s]:   1712.06
	Linear fluid (dielectric constant: 64) occupying 0.819026 of unit cell:	Completed after 0 iterations at t[s]:   1716.29
	Linear fluid (dielectric constant: 64) occupying 0.819026 of unit cell:	Completed after 0 iterations at t[s]:   1719.53
	FillingsUpdate:  mu: -0.090238769  nElectrons: 1122.000000
	SubspaceRotationAdjust: set factor to 0.33
ElecMinimize: Iter:  45  F: -7040.890261817149621  |grad|_K:  5.947e-08  alpha:  2.448e-01  linmin: -9.847e-05  t[s]:   1724.47
	Linear fluid (dielectric constant: 64) occupying 0.819026 of unit cell:	Completed after 3 iterations at t[s]:   1728.75
	Linear fluid (dielectric constant: 64) occupying 0.819026 of unit cell:	Completed after 0 iterations at t[s]:   1731.99
ElecMinimize: 	Step increased F by 7.521976e-08, reducing alpha to 5.914251e-03.
	Linear fluid (dielectric constant: 64) occupying 0.819026 of unit cell:	Completed after 0 iterations at t[s]:   1739.73
ElecMinimize: 	Step increased F by 1.102580e-08, reducing alpha to 5.914251e-04.
	Linear fluid (dielectric constant: 64) occupying 0.819026 of unit cell:	Completed after 0 iterations at t[s]:   1747.51
ElecMinimize: 	Step increased F by 4.882168e-09, reducing alpha to 5.914251e-05.
ElecMinimize: 	Step failed to reduce F after 3 attempts. Quitting step.
ElecMinimize: 	Undoing step.
	Linear fluid (dielectric constant: 64) occupying 0.819026 of unit cell:	Completed after 0 iterations at t[s]:   1755.39
ElecMinimize: 	Step failed: resetting search direction.
	FillingsUpdate:  mu: -0.090255987  nElectrons: 1122.000000
	SubspaceRotationAdjust: set factor to 0.27
ElecMinimize: Iter:  46  F: -7040.890261812391145  |grad|_K:  1.572e-07  alpha:  5.914e-05
	Linear fluid (dielectric constant: 64) occupying 0.819026 of unit cell:	Completed after 3 iterations at t[s]:   1764.54
	Linear fluid (dielectric constant: 64) occupying 0.819026 of unit cell:	Completed after 2 iterations at t[s]:   1767.91
	FillingsUpdate:  mu: -0.090224564  nElectrons: 1122.000000
	SubspaceRotationAdjust: set factor to 0.149
ElecMinimize: Iter:  47  F: -7040.890261839625964  |grad|_K:  1.111e-07  alpha:  6.228e-02  linmin:  6.146e-04  t[s]:   1772.86
	Linear fluid (dielectric constant: 64) occupying 0.819026 of unit cell:	Completed after 0 iterations at t[s]:   1777.09
ElecMinimize: 	Predicted alpha/alphaT>3.000000, increasing alphaT to 1.868328e-01.
	Linear fluid (dielectric constant: 64) occupying 0.819026 of unit cell:	Completed after 1 iterations at t[s]:   1780.44
	Linear fluid (dielectric constant: 64) occupying 0.819026 of unit cell:	Completed after 0 iterations at t[s]:   1783.75
	FillingsUpdate:  mu: -0.090234450  nElectrons: 1122.000000
	SubspaceRotationAdjust: set factor to 0.128
ElecMinimize: Iter:  48  F: -7040.890261857753103  |grad|_K:  6.690e-08  alpha:  1.193e-01  linmin: -1.784e-04  t[s]:   1788.62
	Linear fluid (dielectric constant: 64) occupying 0.819026 of unit cell:	Completed after 0 iterations at t[s]:   1792.88
ElecMinimize: 	Predicted alpha/alphaT>3.000000, increasing alphaT to 3.578127e-01.
	Linear fluid (dielectric constant: 64) occupying 0.819026 of unit cell:	Completed after 3 iterations at t[s]:   1796.31
	Linear fluid (dielectric constant: 64) occupying 0.819026 of unit cell:	Completed after 0 iterations at t[s]:   1799.55
	FillingsUpdate:  mu: -0.090266689  nElectrons: 1122.000000
	SubspaceRotationAdjust: set factor to 0.106
ElecMinimize: Iter:  49  F: -7040.890262211667505  |grad|_K:  1.559e-07  alpha:  8.931e-02  linmin:  3.084e-04  t[s]:   1804.50
ElecMinimize: 	Bad step direction: g.d > 0.
ElecMinimize: 	Undoing step.
	Linear fluid (dielectric constant: 64) occupying 0.819026 of unit cell:	Completed after 0 iterations at t[s]:   1808.66
ElecMinimize: 	Step failed: resetting search direction.
	FillingsUpdate:  mu: -0.090266689  nElectrons: 1122.000000
	SubspaceRotationAdjust: set factor to 0.154
ElecMinimize: Iter:  50  F: -7040.890262211678419  |grad|_K:  1.507e-07  alpha:  0.000e+00
	Linear fluid (dielectric constant: 64) occupying 0.819026 of unit cell:	Completed after 3 iterations at t[s]:   1817.88
	Linear fluid (dielectric constant: 64) occupying 0.819026 of unit cell:	Completed after 0 iterations at t[s]:   1821.23
ElecMinimize: 	Step increased F by 2.928000e-07, reducing alpha to 2.619581e-03.
	Linear fluid (dielectric constant: 64) occupying 0.819026 of unit cell:	Completed after 0 iterations at t[s]:   1829.03
ElecMinimize: 	Step increased F by 2.484767e-07, reducing alpha to 2.619581e-04.
	Linear fluid (dielectric constant: 64) occupying 0.819026 of unit cell:	Completed after 0 iterations at t[s]:   1836.79
ElecMinimize: 	Step increased F by 2.442412e-07, reducing alpha to 2.619581e-05.
ElecMinimize: 	Step failed to reduce F after 3 attempts. Quitting step.
ElecMinimize: 	Undoing step.
	Linear fluid (dielectric constant: 64) occupying 0.819026 of unit cell:	Completed after 0 iterations at t[s]:   1844.62
ElecMinimize: 	Step failed along negative gradient direction.
ElecMinimize: Probably at roundoff error limit. (Stopping)
Setting wave functions to eigenvectors of Hamiltonian
Single-point solvation energy estimate, DeltaF = -0.382306844502637

# Ionic positions in cartesian coordinates:
ion Ni  32.181130469222218  -0.000028463333331   0.611327655000000 0
ion Ni   5.363545148055554  -0.000028463333331   5.974853827499988 0
ion Ni  32.181130469222218  -5.363543250499998   5.974853827499988 0
ion Ni   5.363545148055554  -5.363543250499998   0.611327655000000 0
ion Ni  32.181130469222218 -10.727058037666666   0.611327655000000 0
ion Ni  32.181130469222218 -21.454087611999999   0.611327655000000 0
ion Ni   5.363545148055554 -21.454087611999999   5.974853827499988 0
ion Ni   5.363545148055554 -10.727058037666666   5.974853827499988 0
ion Ni  32.181130469222218 -16.090572824833334   5.974853827499988 0
ion Ni  32.181130469222218 -26.817602399166635   5.974853827499988 0
ion Ni   5.363545148055554 -26.817602399166635   0.611327655000000 0
ion Ni   5.363545148055554 -16.090572824833334   0.611327655000000 0
ion Ni  10.727071320555536  -0.000028463333331   0.611327655000000 0
ion Ni  21.454100894888885  -0.000028463333331   0.611327655000000 0
ion Ni  21.454100894888885  -5.363543250499998   5.974853827499988 0
ion Ni  10.727071320555536  -5.363543250499998   5.974853827499988 0
ion Ni  16.090574722388887  -5.363543250499998   0.611327655000000 0
ion Ni  26.817604296722191  -5.363543250499998   0.611327655000000 0
ion Ni  26.817604296722191  -0.000028463333331   5.974853827499988 0
ion Ni  16.090574722388887  -0.000028463333331   5.974853827499988 0
ion Ni  10.727071320555536 -10.727058037666666   0.611327655000000 0
ion Ni  21.454100894888885 -21.454087611999999   0.611327655000000 0
ion Ni  26.817604296722191 -21.454087611999999   5.974853827499988 0
ion Ni  16.090574722388887 -10.727058037666666   5.974853827499988 0
ion Ni  21.454100894888885 -16.090572824833334   5.974853827499988 0
ion Ni  10.727071320555536 -26.817602399166635   5.974853827499988 0
ion Ni  16.090574722388887 -26.817602399166635   0.611327655000000 0
ion Ni  26.817604296722191 -16.090572824833334   0.611327655000000 0
ion Ni  10.727071320555536 -21.454087611999999   0.611327655000000 0
ion Ni  21.454100894888885 -10.727058037666666   0.611327655000000 0
ion Ni  26.817604296722191 -10.727058037666666   5.974853827499988 0
ion Ni  16.090574722388887 -21.454087611999999   5.974853827499988 0
ion Ni  21.454100894888885 -26.817602399166635   5.974853827499988 0
ion Ni  10.727071320555536 -16.090572824833334   5.974853827499988 0
ion Ni  16.090574722388887 -16.090572824833334   0.611327655000000 0
ion Ni  26.817604296722191 -26.817602399166635   0.611327655000000 0
ion S   4.232269668888877  -4.232271970733331   7.106125994099994 0
ion S  27.948891161222189 -27.948885064266637   4.843581660899996 0
ion S   1.131317225388885 -27.948885064266637   1.742599821599998 0
ion S   9.595784456055537  -4.232271970733331  10.207107833399991 0
ion S  27.948891161222189  -9.595786757899997  10.207107833399991 0
ion S   4.232269668888877  -1.131311128433331   1.742599821599998 0
ion S   9.595784456055537  -1.131311128433331   4.843581660899996 0
ion S   1.131317225388885  -9.595786757899997   7.106125994099994 0
ion S   4.232269668888877 -14.959301545066650   7.106125994099994 0
ion S  27.948891161222189 -17.221855489933301   4.843581660899996 0
ion S   1.131317225388885 -17.221855489933301   1.742599821599998 0
ion S   9.595784456055537 -14.959301545066650  10.207107833399991 0
ion S  27.948891161222189 -20.322816332233330  10.207107833399991 0
ion S   4.232269668888877 -22.585370277100001   1.742599821599998 0
ion S   9.595784456055537 -22.585370277100001   4.843581660899996 0
ion S   1.131317225388885 -20.322816332233330   7.106125994099994 0
ion S  14.959299243222205  -4.232271970733330   7.106125994099994 0
ion S  17.221861586888888 -27.948885064266637   4.843581660899996 0
ion S  17.221861586888888  -9.595786757899997  10.207107833399991 0
ion S  14.959299243222205  -1.131311128433331   1.742599821599998 0
ion S  20.322814030388887  -1.131311128433331   4.843581660899996 0
ion S  22.585376374055553  -9.595786757899997   7.106125994099994 0
ion S  22.585376374055553 -27.948885064266637   1.742599821599998 0
ion S  20.322814030388887  -4.232271970733330  10.207107833399991 0
ion S   4.232269668888877 -25.686331119399970   7.106125994099994 0
ion S  27.948891161222189  -6.494825915599990   4.843581660899996 0
ion S   1.131317225388885  -6.494825915599990   1.742599821599998 0
ion S   9.595784456055537 -25.686331119399970  10.207107833399991 0
ion S  27.948891161222189 -31.049845906566667  10.207107833399991 0
ion S   4.232269668888877 -11.858340702766650   1.742599821599998 0
ion S   9.595784456055537 -11.858340702766650   4.843581660899996 0
ion S   1.131317225388885 -31.049845906566667   7.106125994099994 0
ion S  25.686328817555523  -4.232271970733330   7.106125994099994 0
ion S   6.494832012555547 -27.948885064266637   4.843581660899996 0
ion S   6.494832012555547  -9.595786757899997  10.207107833399991 0
ion S  25.686328817555523  -1.131311128433331   1.742599821599998 0
ion S  31.049843604722220  -1.131311128433331   4.843581660899996 0
ion S  11.858346799722206  -9.595786757899997   7.106125994099994 0
ion S  11.858346799722206 -27.948885064266637   1.742599821599998 0
ion S  31.049843604722220  -4.232271970733330  10.207107833399991 0
ion S  14.959299243222205 -14.959301545066650   7.106125994099994 0
ion S  17.221861586888888 -17.221855489933301   4.843581660899996 0
ion S  22.585376374055553 -17.221855489933301   1.742599821599998 0
ion S  20.322814030388887 -14.959301545066650  10.207107833399991 0
ion S  17.221861586888888 -20.322816332233330  10.207107833399991 0
ion S  14.959299243222205 -22.585370277100001   1.742599821599998 0
ion S  20.322814030388887 -22.585370277100001   4.843581660899996 0
ion S  22.585376374055553 -20.322816332233330   7.106125994099994 0
ion S  14.959299243222205 -25.686331119399970   7.106125994099994 0
ion S  17.221861586888888  -6.494825915599990   4.843581660899996 0
ion S  22.585376374055553  -6.494825915599990   1.742599821599998 0
ion S  20.322814030388887 -25.686331119399970  10.207107833399991 0
ion S  17.221861586888888 -31.049845906566667  10.207107833399991 0
ion S  14.959299243222205 -11.858340702766650   1.742599821599998 0
ion S  20.322814030388887 -11.858340702766650   4.843581660899996 0
ion S  22.585376374055553 -31.049845906566667   7.106125994099994 0
ion S  25.686328817555523 -14.959301545066650   7.106125994099994 0
ion S   6.494832012555547 -17.221855489933301   4.843581660899996 0
ion S  11.858346799722206 -17.221855489933301   1.742599821599998 0
ion S  31.049843604722220 -14.959301545066650  10.207107833399991 0
ion S   6.494832012555547 -20.322816332233330  10.207107833399991 0
ion S  25.686328817555523 -22.585370277100001   1.742599821599998 0
ion S  31.049843604722220 -22.585370277100001   4.843581660899996 0
ion S  11.858346799722206 -20.322816332233330   7.106125994099994 0
ion S  25.686328817555523 -25.686331119399970   7.106125994099994 0
ion S   6.494832012555547  -6.494825915599990   4.843581660899996 0
ion S  11.858346799722206  -6.494825915599990   1.742599821599998 0
ion S  31.049843604722220 -25.686331119399970  10.207107833399991 0
ion S   6.494832012555547 -31.049845906566667  10.207107833399991 0
ion S  25.686328817555523 -11.858340702766650   1.742599821599998 0
ion S  31.049843604722220 -11.858340702766650   4.843581660899996 0
ion S  11.858346799722206 -31.049845906566667   7.106125994099994 0
ion S  15.471942061476629 -11.763866191409679  12.648925931294531 1
ion S  14.817169991503214 -21.603511999306285  15.796519619413594 1
ion S  17.710042005525114 -15.303126508907557  12.800843096220989 1
ion S  16.130943597906381 -23.159479201964160  12.643258338011616 1
ion Na  11.049462915752370 -19.680835703965929  12.598608303907588 1
ion Na  25.726973749507764 -26.476880040626185  12.246901125920868 1

# Forces in Cartesian coordinates:
force Ni   0.022495527291944   0.010040713031651   0.035133599809339 0
force Ni  -0.002770109141067  -0.000306116536632   0.008017647551901 0
force Ni   0.002732021653707  -0.000335162284635   0.008061690008562 0
force Ni  -0.022541413984330   0.010031014474688   0.035084136473645 0
force Ni   0.022553843557553   0.009992551019316   0.035109541025389 0
force Ni   0.022451887724372   0.009994967269897   0.035125488790260 0
force Ni  -0.002668739235462  -0.000237708787176   0.007869498105572 0
[...]
	Linear fluid (dielectric constant: 64) occupying 0.818190 of unit cell:	Completed after 0 iterations at t[s]:  73979.83
	FillingsUpdate:  mu: -0.089004928  nElectrons: 1122.000000
	SubspaceRotationAdjust: set factor to 0.132
ElecMinimize: Iter:   8  F: -7040.956787800280836  |grad|_K:  1.481e-07  alpha:  3.701e-02  linmin:  1.056e-02  t[s]:  73984.78
ElecMinimize: 	Bad step direction: g.d > 0.
ElecMinimize: 	Undoing step.
	Linear fluid (dielectric constant: 64) occupying 0.818190 of unit cell:	Completed after 0 iterations at t[s]:  73988.94
ElecMinimize: 	Step failed: resetting search direction.
	FillingsUpdate:  mu: -0.089004928  nElectrons: 1122.000000
	SubspaceRotationAdjust: set factor to 0.151
ElecMinimize: Iter:   9  F: -7040.956787800253551  |grad|_K:  1.432e-07  alpha:  0.000e+00
	Linear fluid (dielectric constant: 64) occupying 0.818190 of unit cell:	Completed after 0 iterations at t[s]:  73998.01
ElecMinimize: 	Predicted alpha/alphaT>3.000000, increasing alphaT to 1.110163e-01.
	Linear fluid (dielectric constant: 64) occupying 0.818190 of unit cell:	Completed after 2 iterations at t[s]:  74001.36
	Linear fluid (dielectric constant: 64) occupying 0.818190 of unit cell:	Completed after 0 iterations at t[s]:  74004.68
ElecMinimize: 	Step increased F by 7.215112e-08, reducing alpha to 4.371492e-03.
	Linear fluid (dielectric constant: 64) occupying 0.818190 of unit cell:	Completed after 0 iterations at t[s]:  74012.66
ElecMinimize: 	Step increased F by 7.659764e-08, reducing alpha to 4.371492e-04.
	Linear fluid (dielectric constant: 64) occupying 0.818190 of unit cell:	Completed after 0 iterations at t[s]:  74020.54
ElecMinimize: 	Step increased F by 7.304243e-08, reducing alpha to 4.371492e-05.
ElecMinimize: 	Step failed to reduce F after 3 attempts. Quitting step.
ElecMinimize: 	Undoing step.
	Linear fluid (dielectric constant: 64) occupying 0.818190 of unit cell:	Completed after 0 iterations at t[s]:  74028.34
ElecMinimize: 	Step failed along negative gradient direction.
ElecMinimize: Probably at roundoff error limit. (Stopping)
Setting wave functions to eigenvectors of Hamiltonian
IonicMinimize: 	Step failed: resetting search direction.

# Ionic positions in cartesian coordinates:
ion Ni  32.181130469222218  -0.000028463333331   0.611327655000000 0
ion Ni   5.363545148055554  -0.000028463333331   5.974853827499988 0
ion Ni  32.181130469222218  -5.363543250499998   5.974853827499988 0
ion Ni   5.363545148055554  -5.363543250499998   0.611327655000000 0
ion Ni  32.181130469222218 -10.727058037666666   0.611327655000000 0
ion Ni  32.181130469222218 -21.454087611999999   0.611327655000000 0
ion Ni   5.363545148055554 -21.454087611999999   5.974853827499988 0
ion Ni   5.363545148055554 -10.727058037666666   5.974853827499988 0
ion Ni  32.181130469222218 -16.090572824833334   5.974853827499988 0
ion Ni  32.181130469222218 -26.817602399166635   5.974853827499988 0
ion Ni   5.363545148055554 -26.817602399166635   0.611327655000000 0
ion Ni   5.363545148055554 -16.090572824833334   0.611327655000000 0
ion Ni  10.727071320555536  -0.000028463333331   0.611327655000000 0
ion Ni  21.454100894888885  -0.000028463333331   0.611327655000000 0
ion Ni  21.454100894888885  -5.363543250499998   5.974853827499988 0
ion Ni  10.727071320555536  -5.363543250499998   5.974853827499988 0
ion Ni  16.090574722388887  -5.363543250499998   0.611327655000000 0
ion Ni  26.817604296722191  -5.363543250499998   0.611327655000000 0
ion Ni  26.817604296722191  -0.000028463333331   5.974853827499988 0
ion Ni  16.090574722388887  -0.000028463333331   5.974853827499988 0
ion Ni  10.727071320555536 -10.727058037666666   0.611327655000000 0
ion Ni  21.454100894888885 -21.454087611999999   0.611327655000000 0
ion Ni  26.817604296722191 -21.454087611999999   5.974853827499988 0
ion Ni  16.090574722388887 -10.727058037666666   5.974853827499988 0
ion Ni  21.454100894888885 -16.090572824833334   5.974853827499988 0
ion Ni  10.727071320555536 -26.817602399166635   5.974853827499988 0
ion Ni  16.090574722388887 -26.817602399166635   0.611327655000000 0
ion Ni  26.817604296722191 -16.090572824833334   0.611327655000000 0
ion Ni  10.727071320555536 -21.454087611999999   0.611327655000000 0
ion Ni  21.454100894888885 -10.727058037666666   0.611327655000000 0
ion Ni  26.817604296722191 -10.727058037666666   5.974853827499988 0
ion Ni  16.090574722388887 -21.454087611999999   5.974853827499988 0
ion Ni  21.454100894888885 -26.817602399166635   5.974853827499988 0
ion Ni  10.727071320555536 -16.090572824833334   5.974853827499988 0
ion Ni  16.090574722388887 -16.090572824833334   0.611327655000000 0
ion Ni  26.817604296722191 -26.817602399166635   0.611327655000000 0
ion S   4.232269668888877  -4.232271970733331   7.106125994099994 0
ion S  27.948891161222189 -27.948885064266637   4.843581660899996 0
ion S   1.131317225388885 -27.948885064266637   1.742599821599998 0
ion S   9.595784456055537  -4.232271970733331  10.207107833399991 0
ion S  27.948891161222189  -9.595786757899997  10.207107833399991 0
ion S   4.232269668888877  -1.131311128433331   1.742599821599998 0
ion S   9.595784456055537  -1.131311128433331   4.843581660899996 0
ion S   1.131317225388885  -9.595786757899997   7.106125994099994 0
ion S   4.232269668888877 -14.959301545066650   7.106125994099994 0
ion S  27.948891161222189 -17.221855489933301   4.843581660899996 0
ion S   1.131317225388885 -17.221855489933301   1.742599821599998 0
ion S   9.595784456055537 -14.959301545066650  10.207107833399991 0
ion S  27.948891161222189 -20.322816332233330  10.207107833399991 0
ion S   4.232269668888877 -22.585370277100001   1.742599821599998 0
ion S   9.595784456055537 -22.585370277100001   4.843581660899996 0
ion S   1.131317225388885 -20.322816332233330   7.106125994099994 0
ion S  14.959299243222205  -4.232271970733330   7.106125994099994 0
ion S  17.221861586888888 -27.948885064266637   4.843581660899996 0
ion S  17.221861586888888  -9.595786757899997  10.207107833399991 0
ion S  14.959299243222205  -1.131311128433331   1.742599821599998 0
ion S  20.322814030388887  -1.131311128433331   4.843581660899996 0
ion S  22.585376374055553  -9.595786757899997   7.106125994099994 0
ion S  22.585376374055553 -27.948885064266637   1.742599821599998 0
ion S  20.322814030388887  -4.232271970733330  10.207107833399991 0
ion S   4.232269668888877 -25.686331119399970   7.106125994099994 0
ion S  27.948891161222189  -6.494825915599990   4.843581660899996 0
ion S   1.131317225388885  -6.494825915599990   1.742599821599998 0
ion S   9.595784456055537 -25.686331119399970  10.207107833399991 0
ion S  27.948891161222189 -31.049845906566667  10.207107833399991 0
ion S   4.232269668888877 -11.858340702766650   1.742599821599998 0
ion S   9.595784456055537 -11.858340702766650   4.843581660899996 0
ion S   1.131317225388885 -31.049845906566667   7.106125994099994 0
ion S  25.686328817555523  -4.232271970733330   7.106125994099994 0
ion S   6.494832012555547 -27.948885064266637   4.843581660899996 0
ion S   6.494832012555547  -9.595786757899997  10.207107833399991 0
ion S  25.686328817555523  -1.131311128433331   1.742599821599998 0
ion S  31.049843604722220  -1.131311128433331   4.843581660899996 0
ion S  11.858346799722206  -9.595786757899997   7.106125994099994 0
ion S  11.858346799722206 -27.948885064266637   1.742599821599998 0
ion S  31.049843604722220  -4.232271970733330  10.207107833399991 0
ion S  14.959299243222205 -14.959301545066650   7.106125994099994 0
ion S  17.221861586888888 -17.221855489933301   4.843581660899996 0
ion S  22.585376374055553 -17.221855489933301   1.742599821599998 0
ion S  20.322814030388887 -14.959301545066650  10.207107833399991 0
ion S  17.221861586888888 -20.322816332233330  10.207107833399991 0
ion S  14.959299243222205 -22.585370277100001   1.742599821599998 0
ion S  20.322814030388887 -22.585370277100001   4.843581660899996 0
ion S  22.585376374055553 -20.322816332233330   7.106125994099994 0
ion S  14.959299243222205 -25.686331119399970   7.106125994099994 0
ion S  17.221861586888888  -6.494825915599990   4.843581660899996 0
ion S  22.585376374055553  -6.494825915599990   1.742599821599998 0
ion S  20.322814030388887 -25.686331119399970  10.207107833399991 0
ion S  17.221861586888888 -31.049845906566667  10.207107833399991 0
ion S  14.959299243222205 -11.858340702766650   1.742599821599998 0
ion S  20.322814030388887 -11.858340702766650   4.843581660899996 0
ion S  22.585376374055553 -31.049845906566667   7.106125994099994 0
ion S  25.686328817555523 -14.959301545066650   7.106125994099994 0
ion S   6.494832012555547 -17.221855489933301   4.843581660899996 0
ion S  11.858346799722206 -17.221855489933301   1.742599821599998 0
ion S  31.049843604722220 -14.959301545066650  10.207107833399991 0
ion S   6.494832012555547 -20.322816332233330  10.207107833399991 0
ion S  25.686328817555523 -22.585370277100001   1.742599821599998 0
ion S  31.049843604722220 -22.585370277100001   4.843581660899996 0
ion S  11.858346799722206 -20.322816332233330   7.106125994099994 0
ion S  25.686328817555523 -25.686331119399970   7.106125994099994 0
ion S   6.494832012555547  -6.494825915599990   4.843581660899996 0
ion S  11.858346799722206  -6.494825915599990   1.742599821599998 0
ion S  31.049843604722220 -25.686331119399970  10.207107833399991 0
ion S   6.494832012555547 -31.049845906566667  10.207107833399991 0
ion S  25.686328817555523 -11.858340702766650   1.742599821599998 0
ion S  31.049843604722220 -11.858340702766650   4.843581660899996 0
ion S  11.858346799722206 -31.049845906566667   7.106125994099994 0
ion S  15.477397465230792 -11.765098283824345  12.682296144213810 1
ion S  18.295774314705433 -23.204958972020489  15.507210199349940 1
ion S  17.754865588315553 -15.261227820651094  12.899048488624979 1
ion S  17.200070005115336 -23.843568696571321  11.939491297400508 1
ion Na  10.724582374263912 -19.524503266155318  16.235473141294879 1
ion Na  25.598651187912079 -26.133052413779549  15.558129641002092 1

# Forces in Cartesian coordinates:
force Ni   0.022554920814198   0.010057978625727   0.035148183450098 0
force Ni  -0.002611606273519  -0.000378211235478   0.008016141141965 0
force Ni   0.002810689478605  -0.000343243511282   0.008012850990463 0
force Ni  -0.022534200803872   0.010043210444694   0.035249614473833 0
force Ni   0.022607396427778   0.010032999654556   0.035192803127775 0
force Ni   0.022602160999167   0.010050402209064   0.035156252730579 0
force Ni  -0.002600356048052  -0.000284671632303   0.007959688063222 0
force Ni  -0.002529738447093  -0.000154972461864   0.008043646869934 0
force Ni   0.002636559922778  -0.000129743271937   0.008162246299861 0
force Ni   0.002667374709971  -0.000332901002134   0.008077253994898 0
force Ni  -0.022557152077187   0.010090077215899   0.035263818016807 0
force Ni  -0.022576609306245   0.010078329899359   0.035262279511857 0
force Ni   0.022479049530458   0.009988786454277   0.035213336937889 0
force Ni   0.022788638631683   0.010340895421335   0.035101990716360 0
force Ni   0.002358343033821  -0.000183919322314   0.008570406821831 0
force Ni   0.002620449474339  -0.000493596094482   0.007984489380495 0
force Ni  -0.023078397330524   0.009911077198835   0.034205881704365 0
force Ni  -0.022609087631788   0.010038357922971   0.035071050380074 0
force Ni  -0.002493060958384  -0.000415396370706   0.007863934546867 0
force Ni  -0.003002185349059  -0.000501474671609   0.008330188400610 0
force Ni   0.022780557325066   0.010028944381391   0.035007572573946 0
force Ni   0.023000222087322   0.010569818410273   0.034516308321489 0
force Ni  -0.002545118074660  -0.000160982880170   0.008215489086489 0
force Ni  -0.006365423151686  -0.004350032824603  -0.000980842702998 0
force Ni  -0.002300725534101  -0.008575761371237  -0.007224420626021 0
force Ni   0.002162059906688  -0.000261383388385   0.008674562183809 0
force Ni  -0.022537012019806   0.010056930663619   0.035259051322109 0
force Ni  -0.023064047336281   0.010320408721408   0.034684017665769 0
force Ni   0.022603093554074   0.010017338795573   0.035082210963058 0
force Ni   0.022834333168976   0.009871623780484   0.034404567121644 0
force Ni  -0.002004541512749  -0.000051380653021   0.008453417481312 0
force Ni  -0.004900032345688  -0.003990762192784   0.001411138707469 0
force Ni  -0.000282684975384  -0.001754485307944  -0.003374479888660 0
force Ni   0.002472099724719  -0.000263000820971   0.008816980129230 0
force Ni  -0.022978035636947   0.009809053584739   0.033693470266272 0
force Ni  -0.022761664128962   0.010167829736537   0.034855189347652 0
force S  -0.005526142086628   0.004357721765416   0.002038558601300 0
force S   0.000700269745963   0.001024940756288  -0.012659000774810 0
force S  -0.001200076942187  -0.007623479921611  -0.014316968358131 0
force S  -0.000643746586609  -0.007954586582751  -0.017039464661499 0
force S   0.000974076666717  -0.007863432129801  -0.016899475705488 0
force S   0.001123045161544  -0.007551514053819  -0.014096619311454 0
force S  -0.001696588174272   0.001231381584936  -0.013988379831386 0
force S   0.005521621697024   0.004193466687742   0.002052597756979 0
force S  -0.005337659702750   0.004447018278345   0.002160452262425 0
force S   0.000295558284431   0.001137995755969  -0.012560816445154 0
force S  -0.001232268110907  -0.007571424965051  -0.014308105441647 0
force S  -0.001393207743485  -0.008440323744164  -0.017260654969309 0
force S   0.000938663525628  -0.007591373412781  -0.016837903700349 0
force S   0.001184023796119  -0.007590604614741  -0.014197183754270 0
force S  -0.001541661956980   0.001840246461631  -0.013524171272597 0
force S   0.005520153403158   0.004173255008450   0.002079624065798 0
force S  -0.005189846038276   0.004958305509851   0.001879377707440 0
force S   0.002583922202236   0.000537906445001  -0.015236351525139 0
force S  -0.003268911851001  -0.000874935710675  -0.003890370142438 0
force S   0.001063455910138  -0.007532327143444  -0.014332765543298 0
force S  -0.002550547702957   0.001376497232675  -0.013448449012166 0
force S   0.006052897105729   0.003619776697422   0.000167704532844 0
force S   0.000207505360535  -0.008433454504391  -0.015728391065717 0
force S   0.003229591968875  -0.002659486846383  -0.016972495132851 0
force S  -0.005419497460447   0.004200530236001   0.001921418384429 0
force S   0.001794100396141   0.001297411611817  -0.013975254496640 0
force S  -0.001105691865636  -0.007554026922827  -0.014170584886900 0
force S  -0.000972199141230  -0.007954934379088  -0.016936928320212 0
force S   0.000807259740253  -0.007856668956667  -0.016988974750504 0
force S   0.001104348927062  -0.007552620312456  -0.014171382106077 0
force S  -0.000993882023980   0.002044660236736  -0.013264677857749 0
force S   0.005627986333727   0.004281022462235   0.002160899360986 0
force S  -0.005710956434151   0.004207602937606   0.002256174299019 0
force S   0.001766077559280   0.001461379440646  -0.013823915773844 0
force S   0.000436321886764  -0.007660690963188  -0.017077792777766 0
force S   0.001207315299891  -0.007454944937939  -0.014172239001935 0
force S  -0.001787384447394   0.001361690140085  -0.013923148637608 0
force S   0.004081864345128   0.004155401251317  -0.000418791107565 0
force S  -0.001171188446440  -0.007588938119177  -0.014053399583981 0
force S  -0.000759919869260  -0.007942981229608  -0.017024984234232 0
force S  -0.008044472350348   0.003540023995267  -0.003403431747995 0
force S   0.001882164860425   0.002306498644515  -0.013204361334755 0
force S   0.001289260503459  -0.008829372673100  -0.017854243263965 0
force S   0.016121911500673   0.007884382129091   0.010410179457922 0
force S  -0.008445718402122  -0.005892953837703  -0.010439777111384 0
force S   0.000846229350548  -0.007724184234712  -0.014671825602562 0
force S  -0.001798530073058   0.002202129381172  -0.013765529727599 0
force S   0.006209789802748   0.004673298712794   0.000551141847456 0
force S  -0.008718327941218   0.001842945136537  -0.004210382010513 0
force S   0.001401683061037   0.000635395439181  -0.012567894091468 0
force S  -0.001024016222681  -0.007302089710772  -0.014374966988821 0
force S   0.014280057557833  -0.012729341473269   0.003303193433160 0
force S  -0.002184188793453  -0.012356065187075  -0.018673335267989 0
force S   0.000229766916197  -0.008272299709106  -0.015829588172250 0
force S  -0.001439553924398   0.001550964710913  -0.011850786913453 0
force S   0.005009584639377   0.005859629664570   0.002231272335550 0
force S  -0.004771872580766   0.004768696171416   0.001314524035116 0
force S   0.001881693769883   0.001498003373279  -0.014042893215814 0
force S  -0.000751148026076  -0.007575080969507  -0.014283008315836 0
force S  -0.000783561460531  -0.007811519172777  -0.016937450707808 0
force S   0.000481988438785  -0.007584704111157  -0.017024595626813 0
force S   0.001015989741656  -0.007468128587545  -0.014514138587931 0
force S  -0.001390406844078   0.001476124600110  -0.013935397634934 0
force S   0.003563345194118   0.003776427552635   0.000101858864875 0
force S  -0.005168469325418   0.003995658382698   0.001015873832534 0
force S   0.001657833401581   0.001423669306089  -0.013862584302069 0
force S  -0.000791483469512  -0.007380551283967  -0.014261367976137 0
force S  -0.000635852777846  -0.007779131974777  -0.017001445364127 0
force S   0.000600499707726  -0.007908428755722  -0.017048902659728 0
force S   0.001057382656869  -0.007642853199181  -0.014716009270495 0
force S  -0.001465254491876   0.001473522798502  -0.013931229578668 0
force S   0.005553965392533   0.004232296287989   0.001984937906895 0
force S   0.000009981388891  -0.000165947473254   0.000086585451914 1
force S  -0.000049509248047  -0.000055413389470  -0.000312312602322 1
force S  -0.000147079606298  -0.000058290781851   0.000159979073856 1
force S   0.000307583400048  -0.000004497546537   0.000050785171291 1
force Na  -0.000009777157252  -0.000123819372381  -0.000097464908319 1
force Na  -0.000099416205919  -0.000189750703668  -0.000077588926443 1

# Energy components:
   A_diel =       -1.3176658741267133
   Eewald =    37940.6683745995833306
       EH =    44174.0490399400368915
     Eloc =   -90381.8520172502176138
      Enl =      913.3244810802194706
      Exc =     -970.8897012491037231
 Exc_core =      148.7859900186982713
       KE =     1137.2726219256999229
-------------------------------------
     Etot =    -7039.9588768092189639
       TS =        0.9979109180473308
-------------------------------------
        F =    -7040.9567877272666010

IonicMinimize: Iter:  80  F: -7040.956787727266601  |grad|_K:  1.420e-04  alpha:  0.000e+00
IonicMinimize: Converged (|Delta F|<1.000000e-06 for 2 iters).

#--- Lowdin population analysis ---
# oxidation-state Ni +0.181 -0.442 -0.444 +0.181 +0.181 +0.181 -0.443 -0.442 -0.446 -0.445 +0.181 +0.181 +0.184 +0.179 -0.449 -0.441 +0.180 +0.181 -0.444 -0.441 +0.182 +0.174 -0.444 -0.464 -0.458 -0.439 +0.184 +0.174 +0.182 +0.178 -0.442 -0.465 -0.447 -0.439 +0.181 +0.179
# oxidation-state S +0.283 +0.446 +0.040 -0.259 -0.258 +0.041 +0.443 +0.283 +0.282 +0.448 +0.040 -0.231 -0.258 +0.041 +0.444 +0.282 +0.274 +0.439 +0.068 +0.039 +0.444 +0.253 +0.040 -0.302 +0.282 +0.443 +0.041 -0.259 -0.255 +0.040 +0.445 +0.283 +0.283 +0.444 -0.259 +0.041 +0.443 +0.277 +0.041 -0.256 +0.239 +0.427 +0.035 -0.026 -0.069 +0.041 +0.431 +0.255 +0.256 +0.426 +0.038 -0.130 -0.272 +0.036 +0.428 +0.275 +0.263 +0.444 +0.041 -0.258 -0.256 +0.040 +0.442 +0.272 +0.267 +0.443 +0.042 -0.255 -0.259 +0.039 +0.443 +0.283 +0.127 -0.446 +0.156 +0.603
# oxidation-state Na +0.951 +0.936


Dumping 'Na2S4@NiS2_S-PC.fillings' ... done
Dumping 'Na2S4@NiS2_S-PC.wfns' ... done
Dumping 'Na2S4@NiS2_S-PC.fluidState' ... done
Dumping 'Na2S4@NiS2_S-PC.ionpos' ... done
Dumping 'Na2S4@NiS2_S-PC.eigenvals' ... done
End date and time: Sun Oct  6 02:04:39 2024  (Duration: 0-20:34:04.93)
Done!
