
*************** JDFTx 1.7.0  ***************

Start date and time: Wed Oct  9 17:11:20 2024
Executable jdftx_gpu with command-line: -i /home/akim2/JDFTx/Na2S8@NiS2_S-PC/Na2S8@NiS2_S-PC.in -o /home/akim2/JDFTx/Na2S8@NiS2_S-PC/Na2S8@NiS2_S-PC.out
Running on hosts (process indices):  exp-2-57 (0)
Divided in process groups (process indices):  0 (0)
gpuInit: Found compatible cuda device 0 'Tesla V100-SXM2-32GB'
gpuInit: Selected device 0
Resource initialization completed at t[s]:      0.70
Run totals: 1 processes, 1 threads, 1 GPUs


Input parsed successfully to the following command list (including defaults):

basis kpoint-dependent
coords-type Cartesian
core-overlap-check vector
coulomb-interaction Slab 001
coulomb-truncation-embed 0 0 10
davidson-band-ratio 1.1
dump End State
dump Ionic State
dump-interval Ionic 5
dump-name Na2S8@NiS2_S-PC.$VAR
elec-cutoff 20 100
elec-eigen-algo Davidson
elec-ex-corr gga-PBE
elec-smearing Fermi 0.01
electronic-minimize  \
	dirUpdateScheme      FletcherReeves \
	linminMethod         DirUpdateRecommended \
	nIterations          100 \
	history              15 \
	knormThreshold       0 \
	energyDiffThreshold  1e-08 \
	nEnergyDiff          2 \
	alphaTstart          1 \
	alphaTmin            1e-10 \
	updateTestStepSize   yes \
	alphaTreduceFactor   0.1 \
	alphaTincreaseFactor 3 \
	nAlphaAdjustMax      3 \
	wolfeEnergy          0.0001 \
	wolfeGradient        0.9 \
	fdTest               no
exchange-regularization WignerSeitzTruncated
fluid LinearPCM 298.000000 1.013250
fluid-ex-corr lda-TF lda-PZ
fluid-gummel-loop 10 1.000000e-05
fluid-minimize  \
	dirUpdateScheme      PolakRibiere \
	linminMethod         DirUpdateRecommended \
	nIterations          400 \
	history              15 \
	knormThreshold       1e-11 \
	energyDiffThreshold  0 \
	nEnergyDiff          2 \
	alphaTstart          1 \
	alphaTmin            1e-10 \
	updateTestStepSize   yes \
	alphaTreduceFactor   0.1 \
	alphaTincreaseFactor 3 \
	nAlphaAdjustMax      6 \
	wolfeEnergy          0.0001 \
	wolfeGradient        0.9 \
	fdTest               no
fluid-solvent PC 11.6429 ScalarEOS \
	epsBulk 64 \
	pMol 2.95 \
	epsInf 2.02 \
	Pvap 1.53277e-13 \
	sigmaBulk 2.88e-05 \
	Rvdw 0 \
	Res 0 \
	tauNuc 343133
forces-output-coords Positions
ion Ni  32.181130469222218  -0.000028463333331   0.611327655000000 0
ion Ni   5.363545148055554  -0.000028463333331   5.974853827499987 0
ion Ni  32.181130469222218  -5.363543250499998   5.974853827499987 0
ion Ni   5.363545148055554  -5.363543250499998   0.611327655000000 0
ion Ni  32.181130469222218 -10.727058037666666   0.611327655000000 0
ion Ni  32.181130469222218 -21.454087611999999   0.611327655000000 0
ion Ni   5.363545148055554 -21.454087611999999   5.974853827499987 0
ion Ni   5.363545148055554 -10.727058037666666   5.974853827499987 0
ion Ni  32.181130469222218 -16.090572824833334   5.974853827499987 0
ion Ni  32.181130469222218 -26.817602399166635   5.974853827499987 0
ion Ni   5.363545148055554 -26.817602399166635   0.611327655000000 0
ion Ni   5.363545148055554 -16.090572824833334   0.611327655000000 0
ion Ni  10.727071320555536  -0.000028463333331   0.611327655000000 0
ion Ni  21.454100894888885  -0.000028463333331   0.611327655000000 0
ion Ni  21.454100894888885  -5.363543250499998   5.974853827499987 0
ion Ni  10.727071320555536  -5.363543250499998   5.974853827499987 0
ion Ni  16.090574722388887  -5.363543250499998   0.611327655000000 0
ion Ni  26.817604296722191  -5.363543250499998   0.611327655000000 0
ion Ni  26.817604296722191  -0.000028463333331   5.974853827499987 0
ion Ni  16.090574722388887  -0.000028463333331   5.974853827499987 0
ion Ni  10.727071320555536 -10.727058037666666   0.611327655000000 0
ion Ni  21.454100894888885 -21.454087611999999   0.611327655000000 0
ion Ni  26.817604296722191 -21.454087611999999   5.974853827499987 0
ion Ni  16.090574722388887 -10.727058037666666   5.974853827499987 0
ion Ni  21.454100894888885 -16.090572824833334   5.974853827499987 0
ion Ni  10.727071320555536 -26.817602399166635   5.974853827499987 0
ion Ni  16.090574722388887 -26.817602399166635   0.611327655000000 0
ion Ni  26.817604296722191 -16.090572824833334   0.611327655000000 0
ion Ni  10.727071320555536 -21.454087611999999   0.611327655000000 0
ion Ni  21.454100894888885 -10.727058037666666   0.611327655000000 0
ion Ni  26.817604296722191 -10.727058037666666   5.974853827499987 0
ion Ni  16.090574722388887 -21.454087611999999   5.974853827499987 0
ion Ni  21.454100894888885 -26.817602399166635   5.974853827499987 0
ion Ni  10.727071320555536 -16.090572824833334   5.974853827499987 0
ion Ni  16.090574722388887 -16.090572824833334   0.611327655000000 0
ion Ni  26.817604296722191 -26.817602399166635   0.611327655000000 0
ion S   4.232269668888877  -4.232271970733331   7.106125994099986 0
ion S  27.948891161222189 -27.948885064266637   4.843581660899996 0
ion S   1.131317225388885 -27.948885064266637   1.742599821599998 0
ion S   9.595784456055537  -4.232271970733331  10.207107833399981 0
ion S  27.948891161222189  -9.595786757899997  10.207107833399981 0
ion S   4.232269668888877  -1.131311128433331   1.742599821599998 0
ion S   9.595784456055537  -1.131311128433331   4.843581660899996 0
ion S   1.131317225388885  -9.595786757899997   7.106125994099986 0
ion S   4.232269668888877 -14.959301545066650   7.106125994099986 0
ion S  27.948891161222189 -17.221855489933301   4.843581660899996 0
ion S   1.131317225388885 -17.221855489933301   1.742599821599998 0
ion S   9.595784456055537 -14.959301545066650  10.207107833399981 0
ion S  27.948891161222189 -20.322816332233330  10.207107833399981 0
ion S   4.232269668888877 -22.585370277100001   1.742599821599998 0
ion S   9.595784456055537 -22.585370277100001   4.843581660899996 0
ion S   1.131317225388885 -20.322816332233330   7.106125994099986 0
ion S  14.959299243222205  -4.232271970733330   7.106125994099986 0
ion S  17.221861586888888 -27.948885064266637   4.843581660899996 0
ion S  17.221861586888888  -9.595786757899997  10.207107833399981 0
ion S  14.959299243222205  -1.131311128433331   1.742599821599998 0
ion S  20.322814030388887  -1.131311128433331   4.843581660899996 0
ion S  22.585376374055553  -9.595786757899997   7.106125994099986 0
ion S  22.585376374055553 -27.948885064266637   1.742599821599998 0
ion S  20.322814030388887  -4.232271970733330  10.207107833399981 0
ion S   4.232269668888877 -25.686331119399970   7.106125994099986 0
ion S  27.948891161222189  -6.494825915599990   4.843581660899996 0
ion S   1.131317225388885  -6.494825915599990   1.742599821599998 0
ion S   9.595784456055537 -25.686331119399970  10.207107833399981 0
ion S  27.948891161222189 -31.049845906566667  10.207107833399981 0
ion S   4.232269668888877 -11.858340702766650   1.742599821599998 0
ion S   9.595784456055537 -11.858340702766650   4.843581660899996 0
ion S   1.131317225388885 -31.049845906566667   7.106125994099986 0
ion S  25.686328817555523  -4.232271970733330   7.106125994099986 0
ion S   6.494832012555547 -27.948885064266637   4.843581660899996 0
ion S   6.494832012555547  -9.595786757899997  10.207107833399981 0
ion S  25.686328817555523  -1.131311128433331   1.742599821599998 0
ion S  31.049843604722220  -1.131311128433331   4.843581660899996 0
ion S  11.858346799722206  -9.595786757899997   7.106125994099986 0
ion S  11.858346799722206 -27.948885064266637   1.742599821599998 0
ion S  31.049843604722220  -4.232271970733330  10.207107833399981 0
ion S  14.959299243222205 -14.959301545066650   7.106125994099986 0
ion S  17.221861586888888 -17.221855489933301   4.843581660899996 0
ion S  22.585376374055553 -17.221855489933301   1.742599821599998 0
ion S  20.322814030388887 -14.959301545066650  10.207107833399981 0
ion S  17.221861586888888 -20.322816332233330  10.207107833399981 0
ion S  14.959299243222205 -22.585370277100001   1.742599821599998 0
ion S  20.322814030388887 -22.585370277100001   4.843581660899996 0
ion S  22.585376374055553 -20.322816332233330   7.106125994099986 0
ion S  14.959299243222205 -25.686331119399970   7.106125994099986 0
ion S  17.221861586888888  -6.494825915599990   4.843581660899996 0
ion S  22.585376374055553  -6.494825915599990   1.742599821599998 0
ion S  20.322814030388887 -25.686331119399970  10.207107833399981 0
ion S  17.221861586888888 -31.049845906566667  10.207107833399981 0
ion S  14.959299243222205 -11.858340702766650   1.742599821599998 0
ion S  20.322814030388887 -11.858340702766650   4.843581660899996 0
ion S  22.585376374055553 -31.049845906566667   7.106125994099986 0
ion S  25.686328817555523 -14.959301545066650   7.106125994099986 0
ion S   6.494832012555547 -17.221855489933301   4.843581660899996 0
ion S  11.858346799722206 -17.221855489933301   1.742599821599998 0
ion S  31.049843604722220 -14.959301545066650  10.207107833399981 0
ion S   6.494832012555547 -20.322816332233330  10.207107833399981 0
ion S  25.686328817555523 -22.585370277100001   1.742599821599998 0
ion S  31.049843604722220 -22.585370277100001   4.843581660899996 0
ion S  11.858346799722206 -20.322816332233330   7.106125994099986 0
ion S  25.686328817555523 -25.686331119399970   7.106125994099986 0
ion S   6.494832012555547  -6.494825915599990   4.843581660899996 0
ion S  11.858346799722206  -6.494825915599990   1.742599821599998 0
ion S  31.049843604722220 -25.686331119399970  10.207107833399981 0
ion S   6.494832012555547 -31.049845906566667  10.207107833399981 0
ion S  25.686328817555523 -11.858340702766650   1.742599821599998 0
ion S  31.049843604722220 -11.858340702766650   4.843581660899996 0
ion S  11.858346799722206 -31.049845906566667   7.106125994099986 0
ion S  12.642319711647122 -25.793307367430124  12.529104720878010 1
ion S  12.949161071604479 -22.501860378998561  14.577618082938031 1
ion S  14.175315797930734 -19.431621242138309  12.221965471519050 1
ion S   7.350530056143484 -12.949947666415195  15.382043606681107 1
ion S   9.079385134805818 -11.638497314833417  12.305546182557617 1
ion S  14.317847675582973  -8.144240581830255  11.916515796245223 1
ion S  19.938608889993990 -29.081125495075227  11.890917887832625 1
ion S  23.286641178187939 -35.049094680762607  11.885063797839654 1
ion Na  26.240017054343785 -25.200739029512498  12.259180078467459 1
ion Na   3.919583914767282 -16.080523117976600  12.434641665509405 1
ion-species GBRV/$ID_pbe.uspp
ion-width Ecut
ionic-minimize  \
	dirUpdateScheme      FletcherReeves \
	linminMethod         DirUpdateRecommended \
	nIterations          200 \
	history              15 \
	knormThreshold       0.0001 \
	energyDiffThreshold  1e-06 \
	nEnergyDiff          2 \
	alphaTstart          1 \
	alphaTmin            1e-10 \
	updateTestStepSize   yes \
	alphaTreduceFactor   0.1 \
	alphaTincreaseFactor 3 \
	nAlphaAdjustMax      3 \
	wolfeEnergy          0.0001 \
	wolfeGradient        0.9 \
	fdTest               no
kpoint   0.000000000000   0.000000000000   0.000000000000  1.00000000000000
kpoint-folding 1 1 1 
latt-move-scale 1 1 1
latt-scale 1 1 1 
lattice Triclinic 32.1811 32.1811 37.7946 90 90 90
lattice-minimize  \
	dirUpdateScheme      L-BFGS \
	linminMethod         DirUpdateRecommended \
	nIterations          0 \
	history              15 \
	knormThreshold       0 \
	energyDiffThreshold  1e-06 \
	nEnergyDiff          2 \
	alphaTstart          1 \
	alphaTmin            1e-10 \
	updateTestStepSize   yes \
	alphaTreduceFactor   0.1 \
	alphaTincreaseFactor 3 \
	nAlphaAdjustMax      3 \
	wolfeEnergy          0.0001 \
	wolfeGradient        0.9 \
	fdTest               no
lcao-params -1 1e-06 0.01
pcm-variant GLSSA13
spintype no-spin
subspace-rotation-factor 1 yes
symmetries automatic
symmetry-threshold 0.0001



---------- Setting up symmetries ----------

Found 16 point-group symmetries of the bravais lattice
Found 1 space-group symmetries with basis
Applied RMS atom displacement 0 bohrs to make symmetries exact.

---------- Initializing the Grid ----------
R = 
[      32.1811            0            0  ]
[            0      32.1811            0  ]
[            0            0      37.7946  ]
unit cell volume = 39140.9
G =
[   0.195245          0          0  ]
[          0   0.195245          0  ]
[          0          0   0.166246  ]
Minimum fftbox size, Smin = [  148  148  172  ]
Chosen fftbox size, S = [  150  150  180  ]

---------- Initializing tighter grid for wavefunction operations ----------
R = 
[      32.1811            0            0  ]
[            0      32.1811            0  ]
[            0            0      37.7946  ]
unit cell volume = 39140.9
G =
[   0.195245          0          0  ]
[          0   0.195245          0  ]
[          0          0   0.166246  ]
Minimum fftbox size, Smin = [  132  132  156  ]
Chosen fftbox size, S = [  140  140  160  ]

---------- Exchange Correlation functional ----------
Initalized PBE GGA exchange.
Initalized PBE GGA correlation.

---------- Setting up pseudopotentials ----------
Width of ionic core gaussian charges (only for fluid interactions / plotting) set to 0.397384

Reading pseudopotential file '/home/akim2/jdftx_install/build/pseudopotentials/GBRV/ni_pbe.uspp':
  Title: Ni.  Created by USPP 7.3.6 on 1-4-15
  Reference state energy: -170.398381.  18 valence electrons in orbitals:
    |300>  occupation: 2  eigenvalue: -4.804705
    |310>  occupation: 6  eigenvalue: -3.347751
    |320>  occupation: 8  eigenvalue: -1.042415
    |400>  occupation: 0  eigenvalue: -0.795539
    |410>  occupation: 0  eigenvalue: -0.551375
  lMax: 2  lLocal: 3  QijEcut: 6.5
  6 projectors sampled on a log grid with 611 points:
    l: 0  eig: -4.804708  rCut: 1.44
    l: 0  eig: -0.795541  rCut: 1.44
    l: 1  eig: -3.347753  rCut: 1.55
    l: 1  eig: 0.500000  rCut: 1.55
    l: 2  eig: -1.042418  rCut: 1.5
    l: 2  eig: -0.450000  rCut: 1.5
  Partial core density with radius 0.65
  Transforming core density to a uniform radial grid of dG=0.02 with 1283 points.
  Transforming local potential to a uniform radial grid of dG=0.02 with 1283 points.
  Transforming nonlocal projectors to a uniform radial grid of dG=0.02 with 432 points.
  Transforming density augmentations to a uniform radial grid of dG=0.02 with 1283 points.
  Transforming atomic orbitals to a uniform radial grid of dG=0.02 with 432 points.
  Core radius for overlap checks: 1.55 bohrs.

Reading pseudopotential file '/home/akim2/jdftx_install/build/pseudopotentials/GBRV/s_pbe.uspp':
  Title: S.  Created by USPP 7.3.6 on 1-4-15
  Reference state energy: -11.898476.  6 valence electrons in orbitals:
    |300>  occupation: 2  eigenvalue: -0.634167
    |310>  occupation: 4  eigenvalue: -0.257568
  lMax: 2  lLocal: 3  QijEcut: 6
  6 projectors sampled on a log grid with 635 points:
    l: 0  eig: -0.634161  rCut: 1.5
    l: 0  eig: 1.500000  rCut: 1.5
    l: 1  eig: -0.257567  rCut: 1.5
    l: 1  eig: 1.500000  rCut: 1.5
    l: 2  eig: -1.000000  rCut: 1.5
    l: 2  eig: 1.500000  rCut: 1.5
  Partial core density with radius 1.15
  Transforming core density to a uniform radial grid of dG=0.02 with 1283 points.
  Transforming local potential to a uniform radial grid of dG=0.02 with 1283 points.
  Transforming nonlocal projectors to a uniform radial grid of dG=0.02 with 432 points.
  Transforming density augmentations to a uniform radial grid of dG=0.02 with 1283 points.
  Transforming atomic orbitals to a uniform radial grid of dG=0.02 with 432 points.
  Core radius for overlap checks: 1.50 bohrs.

Reading pseudopotential file '/home/akim2/jdftx_install/build/pseudopotentials/GBRV/na_pbe.uspp':
  Title: Na.  Created by USPP 7.3.6 on 23-9-15
  Reference state energy: -47.625620.  9 valence electrons in orbitals:
    |200>  occupation: 2  eigenvalue: -2.085638
    |210>  occupation: 6  eigenvalue: -1.053708
    |300>  occupation: 1  eigenvalue: -0.100838
  lMax: 2  lLocal: 0  QijEcut: 6
  5 projectors sampled on a log grid with 657 points:
    l: 0  eig: -2.085640  rCut: 1.37
    l: 0  eig: -0.100839  rCut: 1.37
    l: 1  eig: -1.053708  rCut: 1.47
    l: 1  eig: 0.500000  rCut: 1.47
    l: 2  eig: 0.750000  rCut: 2
  Transforming local potential to a uniform radial grid of dG=0.02 with 1283 points.
  Transforming nonlocal projectors to a uniform radial grid of dG=0.02 with 432 points.
  Transforming density augmentations to a uniform radial grid of dG=0.02 with 1283 points.
  Transforming atomic orbitals to a uniform radial grid of dG=0.02 with 432 points.
  Core radius for overlap checks: 2.00 bohrs.

Initialized 3 species with 118 total atoms.

Folded 1 k-points by 1x1x1 to 1 k-points.

---------- Setting up k-points, bands, fillings ----------
No reducable k-points. 
Computing the number of bands and number of electrons
Calculating initial fillings.
nElectrons: 1146.000000   nBands: 798   nStates: 1

----- Setting up reduced wavefunction bases (one per k-point) -----
average nbasis = 167141.000 , ideal nbasis = 167213.066

---------- Setting up coulomb interaction ----------
Fluid mode embedding: using embedded box, but periodic Coulomb kernel.
(Fluid response is responsible for (approximate) separation between periodic images.)
Setting up double-sized grid for truncated Coulomb potentials:
R = 
[      32.1811            0            0  ]
[            0      32.1811            0  ]
[            0            0      75.5892  ]
unit cell volume = 78281.9
G =
[   0.195245          0          0  ]
[          0   0.195245          0  ]
[          0          0  0.0831228  ]
Chosen fftbox size, S = [  150  150  360  ]
Integer grid location selected as the embedding center:
   Grid: [  0  0  48  ]
   Lattice: [  0  0  0.264588  ]
   Cartesian: [  0  0  10  ]
Constructing Wigner-Seitz cell: 6 faces (6 quadrilaterals, 0 hexagons)
Range-separation parameter for embedded mesh potentials due to point charges: 0.584339 bohrs.

---------- Setting up ewald sum ----------
Optimum gaussian width for ewald sums = 7.705783 bohr.
Real space sum over 405 unit cells with max indices [  4  4  2  ]
Reciprocal space sum over 9537 terms with max indices [  8  8  16  ]

---------- Allocating electronic variables ----------
Initializing wave functions:  linear combination of atomic orbitals
Ni pseudo-atom occupations:   s ( 2 0 )  p ( 6 0 )  d ( 10 )
S pseudo-atom occupations:   s ( 2 )  p ( 4 )
Na pseudo-atom occupations:   s ( 2 1 )  p ( 6 )
	FillingsUpdate:  mu: -1.059300729  nElectrons: 1146.000000
LCAOMinimize: Iter:   0  F: -6313.6482434629924683  |grad|_K:  3.911e-02  alpha:  1.000e+00
LCAOMinimize: 	Step increased F by 1.263858e+02, reducing alpha to 2.139394e-02.
	FillingsUpdate:  mu: -1.118834288  nElectrons: 1146.000000
LCAOMinimize: Iter:   1  F: -6334.6639410404677619  |grad|_K:  3.769e-02  alpha:  2.139e-02  linmin: -9.273e-02  cgtest:  8.766e-01  t[s]:     25.65
LCAOMinimize: 	Wrong curvature in test step, increasing alphaT to 6.418181e-02.
	FillingsUpdate:  mu: -1.100081623  nElectrons: 1146.000000
LCAOMinimize: Iter:   2  F: -6356.8434309244121323  |grad|_K:  3.722e-02  alpha: -2.396e-01  linmin: -1.209e-01  cgtest:  9.056e-01  t[s]:     31.30
LCAOMinimize: 	Step increased F by 2.121396e+02, reducing alpha to 2.138729e-02.
	FillingsUpdate:  mu: -1.116274535  nElectrons: 1146.000000
LCAOMinimize: Iter:   3  F: -6386.2077022401972499  |grad|_K:  5.761e-02  alpha:  2.139e-02  linmin: -1.790e-01  cgtest:  5.985e-01  t[s]:     41.91
LCAOMinimize: 	Wrong curvature in test step, increasing alphaT to 6.416187e-02.
	FillingsUpdate:  mu: -0.533179210  nElectrons: 1146.000000
LCAOMinimize: Iter:   4  F: -6794.9802261364566220  |grad|_K:  2.028e-01  alpha: -4.590e-03  linmin: -5.495e-02  cgtest:  4.371e-02  t[s]:     47.61
LCAOMinimize: 	Step increased F by 1.775025e+03, reducing alpha to 4.948604e-02.
LCAOMinimize: 	Step increased F by 1.754311e+03, reducing alpha to 4.948604e-03.
LCAOMinimize: 	Step increased F by 6.052851e+02, reducing alpha to 4.948604e-04.
LCAOMinimize: 	Step failed to reduce F after 3 attempts. Quitting step.
LCAOMinimize: 	Undoing step.
LCAOMinimize: 	Step failed: resetting search direction.
	FillingsUpdate:  mu: +4.796382891  nElectrons: 1146.000000
LCAOMinimize: Iter:   5  F: -6264.6173374883792349  |grad|_K:  1.667e-01  alpha:  4.949e-04
LCAOMinimize: 	Step increased F by 1.232630e+03, reducing alpha to 4.495811e-02.
	FillingsUpdate:  mu: +2.297228562  nElectrons: 1146.000000
LCAOMinimize: Iter:   6  F: -6862.8531521925342531  |grad|_K:  7.767e-02  alpha:  4.496e-02  linmin: -2.573e-01  cgtest:  8.382e-01  t[s]:     77.67
LCAOMinimize: Encountered beta<0, resetting CG.
LCAOMinimize: 	Predicted alpha/alphaT>3.000000, increasing alphaT to 1.348743e-01.
	FillingsUpdate:  mu: +0.971413055  nElectrons: 1146.000000
LCAOMinimize: Iter:   7  F: -7012.3830905263785098  |grad|_K:  2.747e-02  alpha:  3.383e-02  linmin: -1.022e-01  cgtest:  3.582e-01  t[s]:     85.46
LCAOMinimize: Encountered beta<0, resetting CG.
LCAOMinimize: 	Wrong curvature in test step, increasing alphaT to 1.015040e-01.
	FillingsUpdate:  mu: +0.608711749  nElectrons: 1146.000000
LCAOMinimize: Iter:   8  F: -7029.4542319806832893  |grad|_K:  2.296e-02  alpha: -3.598e-01  linmin: -1.880e-01  cgtest:  7.415e-01  t[s]:     91.24
	FillingsUpdate:  mu: -0.027830603  nElectrons: 1146.000000
LCAOMinimize: Iter:   9  F: -7052.8429912732126468  |grad|_K:  7.075e-02  alpha:  1.626e-01  linmin:  3.937e-02  cgtest: -1.216e-01  t[s]:     97.40
LCAOMinimize: 	Bad step direction: g.d > 0.
LCAOMinimize: 	Undoing step.
LCAOMinimize: 	Step failed: resetting search direction.
	FillingsUpdate:  mu: -0.027830603  nElectrons: 1146.000000
LCAOMinimize: Iter:  10  F: -7052.8429912732126468  |grad|_K:  7.075e-02  alpha:  0.000e+00
LCAOMinimize: 	Step increased F by 3.834232e+01, reducing alpha to 5.560448e-03.
	FillingsUpdate:  mu: -0.134972278  nElectrons: 1146.000000
LCAOMinimize: Iter:  11  F: -7065.1919342922637952  |grad|_K:  3.315e-02  alpha:  5.560e-03  linmin: -4.123e-01  cgtest:  9.288e-01  t[s]:    112.64
LCAOMinimize: Encountered beta<0, resetting CG.
	FillingsUpdate:  mu: -0.112931756  nElectrons: 1146.000000
LCAOMinimize: Iter:  12  F: -7070.7619911457259150  |grad|_K:  1.695e-02  alpha:  1.537e-02  linmin: -5.727e-02  cgtest:  3.863e-02  t[s]:    118.85
	FillingsUpdate:  mu: -0.033084315  nElectrons: 1146.000000
LCAOMinimize: Iter:  13  F: -7073.7482118538964642  |grad|_K:  8.538e-03  alpha:  3.095e-02  linmin:  1.679e-02  cgtest: -4.932e-02  t[s]:    125.09
	FillingsUpdate:  mu: -0.019480824  nElectrons: 1146.000000
LCAOMinimize: Iter:  14  F: -7074.2552115457483524  |grad|_K:  5.497e-03  alpha:  2.177e-02  linmin:  2.559e-03  cgtest:  1.064e-01  t[s]:    132.74
	FillingsUpdate:  mu: +0.012252007  nElectrons: 1146.000000
LCAOMinimize: Iter:  15  F: -7074.7836170597165619  |grad|_K:  7.024e-03  alpha:  6.023e-02  linmin:  2.922e-02  cgtest: -7.201e-02  t[s]:    138.93
	FillingsUpdate:  mu: +0.003127176  nElectrons: 1146.000000
LCAOMinimize: Iter:  16  F: -7075.0235983907850823  |grad|_K:  5.107e-03  alpha:  1.801e-02  linmin: -1.051e-03  cgtest:  5.273e-01  t[s]:    146.17
	FillingsUpdate:  mu: -0.022286773  nElectrons: 1146.000000
LCAOMinimize: Iter:  17  F: -7075.2630087863317385  |grad|_K:  3.560e-03  alpha:  2.926e-02  linmin:  1.871e-02  cgtest: -8.516e-02  t[s]:    152.38
	FillingsUpdate:  mu: -0.028739481  nElectrons: 1146.000000
LCAOMinimize: Iter:  18  F: -7075.3822984117678061  |grad|_K:  3.194e-03  alpha:  3.100e-02  linmin:  2.306e-03  cgtest:  1.534e-01  t[s]:    158.59
	FillingsUpdate:  mu: -0.038892313  nElectrons: 1146.000000
LCAOMinimize: Iter:  19  F: -7075.4994097446769956  |grad|_K:  2.137e-03  alpha:  3.628e-02  linmin:  2.944e-03  cgtest: -3.621e-02  t[s]:    164.84
	FillingsUpdate:  mu: -0.042289713  nElectrons: 1146.000000
LCAOMinimize: Iter:  20  F: -7075.5343552704453032  |grad|_K:  1.828e-03  alpha:  2.417e-02  linmin: -4.238e-06  cgtest:  2.518e-02  t[s]:    171.06
	FillingsUpdate:  mu: -0.033450334  nElectrons: 1146.000000
LCAOMinimize: Iter:  21  F: -7075.5798080286585900  |grad|_K:  1.492e-03  alpha:  4.320e-02  linmin:  7.503e-03  cgtest: -2.668e-02  t[s]:    177.31
	FillingsUpdate:  mu: -0.033390673  nElectrons: 1146.000000
LCAOMinimize: Iter:  22  F: -7075.6110383730901958  |grad|_K:  1.409e-03  alpha:  4.542e-02  linmin:  1.963e-03  cgtest:  8.956e-02  t[s]:    183.55
	FillingsUpdate:  mu: -0.045265935  nElectrons: 1146.000000
LCAOMinimize: Iter:  23  F: -7075.6253127981672151  |grad|_K:  7.361e-04  alpha:  2.256e-02  linmin: -1.275e-03  cgtest:  3.574e-02  t[s]:    189.73
	FillingsUpdate:  mu: -0.048668980  nElectrons: 1146.000000
LCAOMinimize: Iter:  24  F: -7075.6311040064883855  |grad|_K:  6.490e-04  alpha:  3.340e-02  linmin:  7.384e-04  cgtest: -9.127e-03  t[s]:    195.97
	FillingsUpdate:  mu: -0.051940863  nElectrons: 1146.000000
LCAOMinimize: Iter:  25  F: -7075.6348171956287842  |grad|_K:  4.886e-04  alpha:  2.771e-02  linmin: -6.563e-05  cgtest:  1.233e-02  t[s]:    202.17
	FillingsUpdate:  mu: -0.053739686  nElectrons: 1146.000000
LCAOMinimize: Iter:  26  F: -7075.6375659125842503  |grad|_K:  4.151e-04  alpha:  3.608e-02  linmin:  4.358e-04  cgtest:  1.267e-03  t[s]:    208.37
	FillingsUpdate:  mu: -0.053560281  nElectrons: 1146.000000
LCAOMinimize: Iter:  27  F: -7075.6390699267531090  |grad|_K:  2.670e-04  alpha:  2.740e-02  linmin:  4.291e-05  cgtest:  3.983e-03  t[s]:    214.59
	FillingsUpdate:  mu: -0.055263151  nElectrons: 1146.000000
LCAOMinimize: Iter:  28  F: -7075.6403716825461743  |grad|_K:  2.515e-04  alpha:  5.723e-02  linmin:  4.469e-05  cgtest:  2.988e-03  t[s]:    220.79
	FillingsUpdate:  mu: -0.056056064  nElectrons: 1146.000000
LCAOMinimize: Iter:  29  F: -7075.6408764830475775  |grad|_K:  1.927e-04  alpha:  2.499e-02  linmin: -7.128e-05  cgtest:  1.268e-03  t[s]:    227.07
	FillingsUpdate:  mu: -0.056565102  nElectrons: 1146.000000
LCAOMinimize: Iter:  30  F: -7075.6412397334715934  |grad|_K:  1.597e-04  alpha:  3.065e-02  linmin:  5.476e-05  cgtest: -2.122e-03  t[s]:    233.35
LCAOMinimize: None of the convergence criteria satisfied after 30 iterations.
----- createFluidSolver() ----- (Fluid-side solver setup)
   Initializing fluid molecule 'PC'
     Net charge: 0   dipole magnitude: 0
     Initializing spherical shell mfKernel with radius 0 Bohr
     deltaS corrections:

Correction to mu due to finite nuclear width = -0.0145252
   Cavity determined by nc: 0.00098 and sigma: 0.6
   Effective cavity tension: 9.53e-06 Eh/bohr^2 to account for cavitation and dispersion.


---- Citations for features of the code used in this run ----

   Software package:
      R. Sundararaman, K. Letchworth-Weaver, K.A. Schwarz, D. Gunceler, Y. Ozhabes and T.A. Arias, 'JDFTx: software for joint density-functional theory', SoftwareX 6, 278 (2017)

   gga-PBE exchange-correlation functional:
      J.P. Perdew, K. Burke and M. Ernzerhof, Phys. Rev. Lett. 77, 3865 (1996)

   Pseudopotentials:
      KF Garrity, JW Bennett, KM Rabe and D Vanderbilt, Comput. Mater. Sci. 81, 446 (2014)

   Truncated Coulomb potentials:
      R. Sundararaman and T.A. Arias, Phys. Rev. B 87, 165122 (2013)

   Linear/nonlinear dielectric/ionic fluid model with effective cavity tension:
      D. Gunceler, K. Letchworth-Weaver, R. Sundararaman, K.A. Schwarz and T.A. Arias, Modelling Simul. Mater. Sci. Eng. 21, 074005 (2013)

   Total energy minimization with Auxiliary Hamiltonian:
      C. Freysoldt, S. Boeck, and J. Neugebauer, Phys. Rev. B 79, 241103(R) (2009)

This list may not be complete. Please suggest additional citations or
report any other bugs at https://github.com/shankar1729/jdftx/issues

Initialization completed successfully at t[s]:    235.04

Fluid solver invoked on fresh (random / LCAO) wavefunctions
Running a vacuum solve first:

-------- Initial electronic minimization -----------
	FillingsUpdate:  mu: -0.056565102  nElectrons: 1146.000000
ElecMinimize: Iter:   0  F: -7075.641239733476141  |grad|_K:  2.257e-04  alpha:  1.000e+00
	FillingsUpdate:  mu: -0.098829947  nElectrons: 1146.000000
	SubspaceRotationAdjust: set factor to 0.684
ElecMinimize: Iter:   1  F: -7077.790920647284111  |grad|_K:  3.408e-04  alpha:  3.079e-01  linmin: -1.077e-05  t[s]:    252.57
	FillingsUpdate:  mu: +0.014694770  nElectrons: 1146.000000
	SubspaceRotationAdjust: set factor to 0.378
ElecMinimize: Iter:   2  F: -7077.853656836449773  |grad|_K:  5.942e-04  alpha:  6.121e-02  linmin:  3.603e-04  t[s]:    263.44
	FillingsUpdate:  mu: +0.046261279  nElectrons: 1146.000000
	SubspaceRotationAdjust: set factor to 0.219
ElecMinimize: Iter:   3  F: -7078.018864284826122  |grad|_K:  5.058e-04  alpha:  1.797e-02  linmin:  1.324e-05  t[s]:    274.28
	FillingsUpdate:  mu: -0.004940901  nElectrons: 1146.000000
	SubspaceRotationAdjust: set factor to 0.277
ElecMinimize: Iter:   4  F: -7079.491981625222252  |grad|_K:  2.335e-04  alpha:  4.316e-02  linmin: -2.175e-05  t[s]:    285.17
	FillingsUpdate:  mu: -0.006877778  nElectrons: 1146.000000
	SubspaceRotationAdjust: set factor to 0.245
ElecMinimize: Iter:   5  F: -7080.183435301124518  |grad|_K:  1.944e-04  alpha:  9.042e-02  linmin:  3.080e-06  t[s]:    296.00
	FillingsUpdate:  mu: -0.038691743  nElectrons: 1146.000000
	SubspaceRotationAdjust: set factor to 0.255
ElecMinimize: Iter:   6  F: -7080.573397516945988  |grad|_K:  1.313e-04  alpha:  7.778e-02  linmin: -7.665e-06  t[s]:    306.85
	FillingsUpdate:  mu: -0.026775268  nElectrons: 1146.000000
	SubspaceRotationAdjust: set factor to 0.272
ElecMinimize: Iter:   7  F: -7080.839293333486239  |grad|_K:  1.424e-04  alpha:  1.138e-01  linmin: -1.449e-05  t[s]:    317.71
	FillingsUpdate:  mu: -0.059946821  nElectrons: 1146.000000
	SubspaceRotationAdjust: set factor to 0.236
ElecMinimize: Iter:   8  F: -7081.216918399690258  |grad|_K:  1.299e-04  alpha:  1.372e-01  linmin:  7.590e-06  t[s]:    328.55
	FillingsUpdate:  mu: -0.099094100  nElectrons: 1146.000000
	SubspaceRotationAdjust: set factor to 0.325
ElecMinimize: Iter:   9  F: -7081.377067644789349  |grad|_K:  7.825e-05  alpha:  6.975e-02  linmin: -2.224e-05  t[s]:    339.45
	FillingsUpdate:  mu: -0.096594495  nElectrons: 1146.000000
	SubspaceRotationAdjust: set factor to 0.346
ElecMinimize: Iter:  10  F: -7081.460135207898020  |grad|_K:  7.855e-05  alpha:  1.008e-01  linmin:  4.116e-05  t[s]:    350.36
	FillingsUpdate:  mu: -0.079853538  nElectrons: 1146.000000
	SubspaceRotationAdjust: set factor to 0.321
ElecMinimize: Iter:  11  F: -7081.536432078567486  |grad|_K:  7.576e-05  alpha:  9.348e-02  linmin:  1.698e-05  t[s]:    361.23
	FillingsUpdate:  mu: -0.071866833  nElectrons: 1146.000000
	SubspaceRotationAdjust: set factor to 0.228
ElecMinimize: Iter:  12  F: -7081.603869218980435  |grad|_K:  6.274e-05  alpha:  8.819e-02  linmin: -5.084e-06  t[s]:    372.11
	FillingsUpdate:  mu: -0.077676890  nElectrons: 1146.000000
	SubspaceRotationAdjust: set factor to 0.219
ElecMinimize: Iter:  13  F: -7081.642316843727713  |grad|_K:  4.316e-05  alpha:  7.292e-02  linmin:  3.002e-06  t[s]:    382.97
	FillingsUpdate:  mu: -0.082151876  nElectrons: 1146.000000
	SubspaceRotationAdjust: set factor to 0.173
ElecMinimize: Iter:  14  F: -7081.674009203106834  |grad|_K:  4.403e-05  alpha:  1.272e-01  linmin: -3.796e-06  t[s]:    393.83
	FillingsUpdate:  mu: -0.084221467  nElectrons: 1146.000000
	SubspaceRotationAdjust: set factor to 0.221
ElecMinimize: Iter:  15  F: -7081.704757294160117  |grad|_K:  3.435e-05  alpha:  1.184e-01  linmin: -6.804e-06  t[s]:    404.70
	FillingsUpdate:  mu: -0.083894261  nElectrons: 1146.000000
	SubspaceRotationAdjust: set factor to 0.243
ElecMinimize: Iter:  16  F: -7081.724353663620604  |grad|_K:  2.790e-05  alpha:  1.232e-01  linmin: -5.470e-06  t[s]:    415.52
	FillingsUpdate:  mu: -0.086797555  nElectrons: 1146.000000
	SubspaceRotationAdjust: set factor to 0.318
ElecMinimize: Iter:  17  F: -7081.736895210351577  |grad|_K:  2.365e-05  alpha:  1.198e-01  linmin:  2.841e-07  t[s]:    426.39
	FillingsUpdate:  mu: -0.089637796  nElectrons: 1146.000000
	SubspaceRotationAdjust: set factor to 0.312
ElecMinimize: Iter:  18  F: -7081.746805562607733  |grad|_K:  2.431e-05  alpha:  1.327e-01  linmin:  1.428e-06  t[s]:    437.28
	FillingsUpdate:  mu: -0.089346157  nElectrons: 1146.000000
	SubspaceRotationAdjust: set factor to 0.342
ElecMinimize: Iter:  19  F: -7081.756327004237392  |grad|_K:  2.071e-05  alpha:  1.209e-01  linmin:  5.757e-07  t[s]:    448.14
	FillingsUpdate:  mu: -0.088224498  nElectrons: 1146.000000
	SubspaceRotationAdjust: set factor to 0.387
ElecMinimize: Iter:  20  F: -7081.762370284705867  |grad|_K:  1.741e-05  alpha:  1.056e-01  linmin:  2.911e-08  t[s]:    459.01
	FillingsUpdate:  mu: -0.088135830  nElectrons: 1146.000000
	SubspaceRotationAdjust: set factor to 0.372
ElecMinimize: Iter:  21  F: -7081.766257535416116  |grad|_K:  1.428e-05  alpha:  9.589e-02  linmin:  1.464e-08  t[s]:    469.86
	FillingsUpdate:  mu: -0.087698205  nElectrons: 1146.000000
	SubspaceRotationAdjust: set factor to 0.342
ElecMinimize: Iter:  22  F: -7081.769685289626068  |grad|_K:  1.463e-05  alpha:  1.258e-01  linmin:  1.612e-07  t[s]:    480.74
	FillingsUpdate:  mu: -0.088097203  nElectrons: 1146.000000
	SubspaceRotationAdjust: set factor to 0.379
ElecMinimize: Iter:  23  F: -7081.772558368316822  |grad|_K:  1.198e-05  alpha:  1.004e-01  linmin:  2.667e-08  t[s]:    491.58
	FillingsUpdate:  mu: -0.089808783  nElectrons: 1146.000000
	SubspaceRotationAdjust: set factor to 0.436
ElecMinimize: Iter:  24  F: -7081.774487685350323  |grad|_K:  9.074e-06  alpha:  1.006e-01  linmin:  2.871e-07  t[s]:    502.43
	FillingsUpdate:  mu: -0.090814029  nElectrons: 1146.000000
	SubspaceRotationAdjust: set factor to 0.424
ElecMinimize: Iter:  25  F: -7081.775619386587096  |grad|_K:  9.149e-06  alpha:  1.029e-01  linmin: -2.367e-08  t[s]:    513.33
	FillingsUpdate:  mu: -0.090422582  nElectrons: 1146.000000
	SubspaceRotationAdjust: set factor to 0.451
ElecMinimize: Iter:  26  F: -7081.776737650130599  |grad|_K:  7.545e-06  alpha:  9.992e-02  linmin: -2.889e-07  t[s]:    524.17
	FillingsUpdate:  mu: -0.089574736  nElectrons: 1146.000000
	SubspaceRotationAdjust: set factor to 0.497
ElecMinimize: Iter:  27  F: -7081.777476782055601  |grad|_K:  5.933e-06  alpha:  9.702e-02  linmin: -3.465e-07  t[s]:    535.02
	FillingsUpdate:  mu: -0.089431861  nElectrons: 1146.000000
	SubspaceRotationAdjust: set factor to 0.451
ElecMinimize: Iter:  28  F: -7081.777863455474289  |grad|_K:  5.299e-06  alpha:  8.209e-02  linmin:  9.300e-08  t[s]:    545.91
	FillingsUpdate:  mu: -0.089445467  nElectrons: 1146.000000
	SubspaceRotationAdjust: set factor to 0.468
ElecMinimize: Iter:  29  F: -7081.778215552170877  |grad|_K:  4.140e-06  alpha:  9.382e-02  linmin:  4.189e-07  t[s]:    556.72
	FillingsUpdate:  mu: -0.089521110  nElectrons: 1146.000000
	SubspaceRotationAdjust: set factor to 0.487
ElecMinimize: Iter:  30  F: -7081.778473536718593  |grad|_K:  4.046e-06  alpha:  1.127e-01  linmin:  3.694e-07  t[s]:    567.56
	FillingsUpdate:  mu: -0.089708776  nElectrons: 1146.000000
	SubspaceRotationAdjust: set factor to 0.457
ElecMinimize: Iter:  31  F: -7081.778648798303038  |grad|_K:  3.290e-06  alpha:  8.011e-02  linmin:  2.916e-07  t[s]:    578.40
	FillingsUpdate:  mu: -0.089527515  nElectrons: 1146.000000
	SubspaceRotationAdjust: set factor to 0.456
ElecMinimize: Iter:  32  F: -7081.778803758230424  |grad|_K:  2.782e-06  alpha:  1.072e-01  linmin:  6.588e-07  t[s]:    589.22
	FillingsUpdate:  mu: -0.089296784  nElectrons: 1146.000000
	SubspaceRotationAdjust: set factor to 0.393
ElecMinimize: Iter:  33  F: -7081.778900293837978  |grad|_K:  2.475e-06  alpha:  9.336e-02  linmin:  4.072e-07  t[s]:    600.10
	FillingsUpdate:  mu: -0.089461980  nElectrons: 1146.000000
	SubspaceRotationAdjust: set factor to 0.412
ElecMinimize: Iter:  34  F: -7081.778973584352570  |grad|_K:  1.888e-06  alpha:  8.956e-02  linmin:  4.484e-07  t[s]:    610.97
	FillingsUpdate:  mu: -0.089644668  nElectrons: 1146.000000
	SubspaceRotationAdjust: set factor to 0.38
ElecMinimize: Iter:  35  F: -7081.779028981905867  |grad|_K:  1.822e-06  alpha:  1.163e-01  linmin:  4.953e-07  t[s]:    621.82
	FillingsUpdate:  mu: -0.089506926  nElectrons: 1146.000000
	SubspaceRotationAdjust: set factor to 0.422
ElecMinimize: Iter:  36  F: -7081.779076267755045  |grad|_K:  1.646e-06  alpha:  1.066e-01  linmin:  3.316e-07  t[s]:    632.69
	FillingsUpdate:  mu: -0.089385470  nElectrons: 1146.000000
	SubspaceRotationAdjust: set factor to 0.476
ElecMinimize: Iter:  37  F: -7081.779113938662704  |grad|_K:  1.303e-06  alpha:  1.041e-01  linmin:  4.097e-07  t[s]:    643.52
	FillingsUpdate:  mu: -0.089362017  nElectrons: 1146.000000
	SubspaceRotationAdjust: set factor to 0.446
ElecMinimize: Iter:  38  F: -7081.779136868372007  |grad|_K:  1.266e-06  alpha:  1.012e-01  linmin:  2.768e-07  t[s]:    654.36
	FillingsUpdate:  mu: -0.089302391  nElectrons: 1146.000000
	SubspaceRotationAdjust: set factor to 0.433
ElecMinimize: Iter:  39  F: -7081.779156673878788  |grad|_K:  1.049e-06  alpha:  9.247e-02  linmin:  1.695e-07  t[s]:    665.24
	FillingsUpdate:  mu: -0.089390222  nElectrons: 1146.000000
	SubspaceRotationAdjust: set factor to 0.417
ElecMinimize: Iter:  40  F: -7081.779171839733863  |grad|_K:  8.850e-07  alpha:  1.031e-01  linmin:  1.480e-07  t[s]:    676.09
	FillingsUpdate:  mu: -0.089488524  nElectrons: 1146.000000
	SubspaceRotationAdjust: set factor to 0.442
ElecMinimize: Iter:  41  F: -7081.779181566375883  |grad|_K:  7.422e-07  alpha:  9.292e-02  linmin:  9.824e-08  t[s]:    686.98
	FillingsUpdate:  mu: -0.089446051  nElectrons: 1146.000000
	SubspaceRotationAdjust: set factor to 0.432
ElecMinimize: Iter:  42  F: -7081.779188624485869  |grad|_K:  6.174e-07  alpha:  9.588e-02  linmin:  7.775e-08  t[s]:    697.84
	FillingsUpdate:  mu: -0.089391006  nElectrons: 1146.000000
	SubspaceRotationAdjust: set factor to 0.409
ElecMinimize: Iter:  43  F: -7081.779194620841736  |grad|_K:  5.921e-07  alpha:  1.177e-01  linmin:  8.825e-08  t[s]:    708.68
	FillingsUpdate:  mu: -0.089411934  nElectrons: 1146.000000
	SubspaceRotationAdjust: set factor to 0.423
ElecMinimize: Iter:  44  F: -7081.779198973377788  |grad|_K:  5.046e-07  alpha:  9.290e-02  linmin:  4.491e-08  t[s]:    719.51
	FillingsUpdate:  mu: -0.089402779  nElectrons: 1146.000000
	SubspaceRotationAdjust: set factor to 0.501
ElecMinimize: Iter:  45  F: -7081.779202258449004  |grad|_K:  3.680e-07  alpha:  9.653e-02  linmin:  4.789e-08  t[s]:    730.31
	FillingsUpdate:  mu: -0.089380200  nElectrons: 1146.000000
	SubspaceRotationAdjust: set factor to 0.445
ElecMinimize: Iter:  46  F: -7081.779204246673544  |grad|_K:  3.837e-07  alpha:  1.098e-01  linmin:  2.793e-08  t[s]:    741.14
	FillingsUpdate:  mu: -0.089392169  nElectrons: 1146.000000
	SubspaceRotationAdjust: set factor to 0.464
ElecMinimize: Iter:  47  F: -7081.779205764878498  |grad|_K:  2.822e-07  alpha:  7.714e-02  linmin:  3.746e-08  t[s]:    751.95
	FillingsUpdate:  mu: -0.089394110  nElectrons: 1146.000000
	SubspaceRotationAdjust: set factor to 0.511
ElecMinimize: Iter:  48  F: -7081.779206895912466  |grad|_K:  2.481e-07  alpha:  1.062e-01  linmin:  8.701e-09  t[s]:    762.79
	FillingsUpdate:  mu: -0.089398164  nElectrons: 1146.000000
	SubspaceRotationAdjust: set factor to 0.437
ElecMinimize: Iter:  49  F: -7081.779207708154900  |grad|_K:  2.465e-07  alpha:  9.872e-02  linmin:  3.693e-08  t[s]:    773.62
	FillingsUpdate:  mu: -0.089433244  nElectrons: 1146.000000
	SubspaceRotationAdjust: set factor to 0.461
ElecMinimize: Iter:  50  F: -7081.779208346493760  |grad|_K:  1.867e-07  alpha:  7.860e-02  linmin:  3.665e-08  t[s]:    784.47
	FillingsUpdate:  mu: -0.089449566  nElectrons: 1146.000000
	SubspaceRotationAdjust: set factor to 0.411
ElecMinimize: Iter:  51  F: -7081.779208932984147  |grad|_K:  1.846e-07  alpha:  1.259e-01  linmin:  2.035e-08  t[s]:    795.31
	FillingsUpdate:  mu: -0.089427985  nElectrons: 1146.000000
	SubspaceRotationAdjust: set factor to 0.424
ElecMinimize: Iter:  52  F: -7081.779209293996246  |grad|_K:  1.435e-07  alpha:  7.921e-02  linmin:  2.989e-08  t[s]:    806.17
	FillingsUpdate:  mu: -0.089411577  nElectrons: 1146.000000
	SubspaceRotationAdjust: set factor to 0.426
ElecMinimize: Iter:  53  F: -7081.779209586112302  |grad|_K:  1.254e-07  alpha:  1.061e-01  linmin:  6.518e-08  t[s]:    817.02
	FillingsUpdate:  mu: -0.089410606  nElectrons: 1146.000000
	SubspaceRotationAdjust: set factor to 0.382
ElecMinimize: Iter:  54  F: -7081.779209805959908  |grad|_K:  1.187e-07  alpha:  1.046e-01  linmin:  1.621e-08  t[s]:    827.87
	FillingsUpdate:  mu: -0.089407743  nElectrons: 1146.000000
	SubspaceRotationAdjust: set factor to 0.414
ElecMinimize: Iter:  55  F: -7081.779209978758445  |grad|_K:  9.401e-08  alpha:  9.173e-02  linmin:  6.332e-08  t[s]:    838.68
	FillingsUpdate:  mu: -0.089413885  nElectrons: 1146.000000
	SubspaceRotationAdjust: set factor to 0.457
ElecMinimize: Iter:  56  F: -7081.779210114323178  |grad|_K:  8.645e-08  alpha:  1.148e-01  linmin: -5.083e-08  t[s]:    849.53
	FillingsUpdate:  mu: -0.089420843  nElectrons: 1146.000000
	SubspaceRotationAdjust: set factor to 0.461
ElecMinimize: Iter:  57  F: -7081.779210205540949  |grad|_K:  7.546e-08  alpha:  9.114e-02  linmin:  2.229e-08  t[s]:    860.33
	FillingsUpdate:  mu: -0.089415241  nElectrons: 1146.000000
	SubspaceRotationAdjust: set factor to 0.497
ElecMinimize: Iter:  58  F: -7081.779210283593784  |grad|_K:  6.726e-08  alpha:  1.026e-01  linmin:  7.491e-08  t[s]:    871.18
	FillingsUpdate:  mu: -0.089411826  nElectrons: 1146.000000
	SubspaceRotationAdjust: set factor to 0.463
ElecMinimize: Iter:  59  F: -7081.779210341845101  |grad|_K:  6.053e-08  alpha:  9.630e-02  linmin: -3.600e-08  t[s]:    882.01
	FillingsUpdate:  mu: -0.089416991  nElectrons: 1146.000000
	SubspaceRotationAdjust: set factor to 0.468
ElecMinimize: Iter:  60  F: -7081.779210381621851  |grad|_K:  4.989e-08  alpha:  8.120e-02  linmin: -5.028e-08  t[s]:    892.85
	FillingsUpdate:  mu: -0.089419141  nElectrons: 1146.000000
	SubspaceRotationAdjust: set factor to 0.525
ElecMinimize: Iter:  61  F: -7081.779210415222224  |grad|_K:  4.189e-08  alpha:  1.008e-01  linmin: -8.555e-09  t[s]:    903.66
	FillingsUpdate:  mu: -0.089416623  nElectrons: 1146.000000
	SubspaceRotationAdjust: set factor to 0.479
ElecMinimize: Iter:  62  F: -7081.779210438375230  |grad|_K:  4.321e-08  alpha:  9.860e-02  linmin:  7.478e-08  t[s]:    914.49
	FillingsUpdate:  mu: -0.089415502  nElectrons: 1146.000000
	SubspaceRotationAdjust: set factor to 0.487
ElecMinimize: Iter:  63  F: -7081.779210457677436  |grad|_K:  3.193e-08  alpha:  7.759e-02  linmin: -2.407e-08  t[s]:    925.37
	FillingsUpdate:  mu: -0.089414207  nElectrons: 1146.000000
	SubspaceRotationAdjust: set factor to 0.44
ElecMinimize: Iter:  64  F: -7081.779210473408057  |grad|_K:  3.179e-08  alpha:  1.160e-01  linmin:  1.972e-07  t[s]:    936.24
	FillingsUpdate:  mu: -0.089413828  nElectrons: 1146.000000
	SubspaceRotationAdjust: set factor to 0.455
ElecMinimize: Iter:  65  F: -7081.779210483779025  |grad|_K:  2.484e-08  alpha:  7.768e-02  linmin:  1.184e-07  t[s]:    947.05
	FillingsUpdate:  mu: -0.089416165  nElectrons: 1146.000000
	SubspaceRotationAdjust: set factor to 0.466
ElecMinimize: Iter:  66  F: -7081.779210491652520  |grad|_K:  2.190e-08  alpha:  9.630e-02  linmin:  1.506e-07  t[s]:    957.90
	FillingsUpdate:  mu: -0.089418284  nElectrons: 1146.000000
	SubspaceRotationAdjust: set factor to 0.4
ElecMinimize: Iter:  67  F: -7081.779210499331384  |grad|_K:  2.240e-08  alpha:  1.195e-01  linmin:  3.633e-09  t[s]:    968.72
ElecMinimize: Converged (|Delta F|<1.000000e-08 for 2 iters).
Setting wave functions to eigenvectors of Hamiltonian
Vacuum energy after initial minimize, F = -7081.779210499331384


-------- Electronic minimization -----------
	Linear fluid (dielectric constant: 64) occupying 0.782033 of unit cell:	Completed after 42 iterations at t[s]:    970.80
	FillingsUpdate:  mu: -0.088663701  nElectrons: 1146.000000
ElecMinimize: Iter:   0  F: -7081.958595707215864  |grad|_K:  4.029e-05  alpha:  1.000e+00
	Linear fluid (dielectric constant: 64) occupying 0.782661 of unit cell:	Completed after 42 iterations at t[s]:    980.32
	Linear fluid (dielectric constant: 64) occupying 0.782098 of unit cell:	Completed after 40 iterations at t[s]:    983.96
	FillingsUpdate:  mu: -0.095152587  nElectrons: 1146.000000
	SubspaceRotationAdjust: set factor to 0.346
ElecMinimize: Iter:   1  F: -7081.986956725505479  |grad|_K:  3.173e-05  alpha:  1.225e-01  linmin: -8.570e-04  t[s]:    988.48
	Linear fluid (dielectric constant: 64) occupying 0.782255 of unit cell:	Completed after 25 iterations at t[s]:    992.62
	Linear fluid (dielectric constant: 64) occupying 0.782439 of unit cell:	Completed after 26 iterations at t[s]:    995.91
	FillingsUpdate:  mu: -0.093185518  nElectrons: 1146.000000
	SubspaceRotationAdjust: set factor to 0.342
ElecMinimize: Iter:   2  F: -7082.024939323676335  |grad|_K:  2.971e-05  alpha:  2.633e-01  linmin: -1.318e-04  t[s]:   1000.40
	Linear fluid (dielectric constant: 64) occupying 0.782972 of unit cell:	Completed after 30 iterations at t[s]:   1004.61
	Linear fluid (dielectric constant: 64) occupying 0.783144 of unit cell:	Completed after 24 iterations at t[s]:   1007.92
	FillingsUpdate:  mu: -0.078984814  nElectrons: 1146.000000
	SubspaceRotationAdjust: set factor to 0.327
ElecMinimize: Iter:   3  F: -7082.067003498075792  |grad|_K:  3.134e-05  alpha:  3.471e-01  linmin: -7.746e-05  t[s]:   1012.44
	Linear fluid (dielectric constant: 64) occupying 0.783948 of unit cell:	Completed after 34 iterations at t[s]:   1016.70
	Linear fluid (dielectric constant: 64) occupying 0.783546 of unit cell:	Completed after 29 iterations at t[s]:   1020.04
	FillingsUpdate:  mu: -0.078395357  nElectrons: 1146.000000
	SubspaceRotationAdjust: set factor to 0.248
ElecMinimize: Iter:   4  F: -7082.089753133676822  |grad|_K:  2.401e-05  alpha:  1.703e-01  linmin:  3.707e-06  t[s]:   1024.55
	Linear fluid (dielectric constant: 64) occupying 0.783741 of unit cell:	Completed after 28 iterations at t[s]:   1028.71
	Linear fluid (dielectric constant: 64) occupying 0.783730 of unit cell:	Completed after 11 iterations at t[s]:   1031.79
	FillingsUpdate:  mu: -0.081551066  nElectrons: 1146.000000
	SubspaceRotationAdjust: set factor to 0.194
ElecMinimize: Iter:   5  F: -7082.102085629103385  |grad|_K:  1.851e-05  alpha:  1.602e-01  linmin: -2.839e-06  t[s]:   1036.26
	Linear fluid (dielectric constant: 64) occupying 0.783797 of unit cell:	Completed after 23 iterations at t[s]:   1040.34
	Linear fluid (dielectric constant: 64) occupying 0.783863 of unit cell:	Completed after 24 iterations at t[s]:   1043.63
	FillingsUpdate:  mu: -0.079619247  nElectrons: 1146.000000
	SubspaceRotationAdjust: set factor to 0.211
ElecMinimize: Iter:   6  F: -7082.119231434431640  |grad|_K:  1.492e-05  alpha:  3.716e-01  linmin: -4.071e-05  t[s]:   1048.12
	Linear fluid (dielectric constant: 64) occupying 0.783836 of unit cell:	Completed after 27 iterations at t[s]:   1052.27
	Linear fluid (dielectric constant: 64) occupying 0.783855 of unit cell:	Completed after 21 iterations at t[s]:   1055.50
	FillingsUpdate:  mu: -0.077806556  nElectrons: 1146.000000
	SubspaceRotationAdjust: set factor to 0.191
ElecMinimize: Iter:   7  F: -7082.125389655072468  |grad|_K:  1.099e-05  alpha:  2.051e-01  linmin:  1.582e-06  t[s]:   1059.99
	Linear fluid (dielectric constant: 64) occupying 0.783809 of unit cell:	Completed after 19 iterations at t[s]:   1064.04
	Linear fluid (dielectric constant: 64) occupying 0.783774 of unit cell:	Completed after 18 iterations at t[s]:   1067.22
	FillingsUpdate:  mu: -0.078959765  nElectrons: 1146.000000
	SubspaceRotationAdjust: set factor to 0.194
ElecMinimize: Iter:   8  F: -7082.130849733893228  |grad|_K:  1.006e-05  alpha:  3.384e-01  linmin: -5.427e-06  t[s]:   1071.68
	Linear fluid (dielectric constant: 64) occupying 0.783676 of unit cell:	Completed after 25 iterations at t[s]:   1075.79
	Linear fluid (dielectric constant: 64) occupying 0.783715 of unit cell:	Completed after 18 iterations at t[s]:   1078.99
	FillingsUpdate:  mu: -0.078618025  nElectrons: 1146.000000
	SubspaceRotationAdjust: set factor to 0.175
ElecMinimize: Iter:   9  F: -7082.133715677149667  |grad|_K:  7.923e-06  alpha:  2.116e-01  linmin: -1.745e-06  t[s]:   1083.50
	Linear fluid (dielectric constant: 64) occupying 0.783674 of unit cell:	Completed after 21 iterations at t[s]:   1087.56
	Linear fluid (dielectric constant: 64) occupying 0.783643 of unit cell:	Completed after 19 iterations at t[s]:   1090.77
	FillingsUpdate:  mu: -0.076674318  nElectrons: 1146.000000
	SubspaceRotationAdjust: set factor to 0.158
ElecMinimize: Iter:  10  F: -7082.136685084861710  |grad|_K:  6.191e-06  alpha:  3.539e-01  linmin: -2.485e-06  t[s]:   1095.26
	Linear fluid (dielectric constant: 64) occupying 0.783593 of unit cell:	Completed after 22 iterations at t[s]:   1099.34
	Linear fluid (dielectric constant: 64) occupying 0.783598 of unit cell:	Completed after 5 iterations at t[s]:   1102.33
	FillingsUpdate:  mu: -0.077420708  nElectrons: 1146.000000
	SubspaceRotationAdjust: set factor to 0.16
ElecMinimize: Iter:  11  F: -7082.138329750513549  |grad|_K:  6.155e-06  alpha:  3.207e-01  linmin:  7.673e-07  t[s]:   1106.80
	Linear fluid (dielectric constant: 64) occupying 0.783563 of unit cell:	Completed after 21 iterations at t[s]:   1110.86
	Linear fluid (dielectric constant: 64) occupying 0.783568 of unit cell:	Completed after 11 iterations at t[s]:   1114.00
	FillingsUpdate:  mu: -0.077061531  nElectrons: 1146.000000
	SubspaceRotationAdjust: set factor to 0.146
ElecMinimize: Iter:  12  F: -7082.139744637372132  |grad|_K:  4.661e-06  alpha:  2.795e-01  linmin: -7.058e-07  t[s]:   1118.48
	Linear fluid (dielectric constant: 64) occupying 0.783562 of unit cell:	Completed after 18 iterations at t[s]:   1122.57
	Linear fluid (dielectric constant: 64) occupying 0.783560 of unit cell:	Completed after 10 iterations at t[s]:   1125.67
	FillingsUpdate:  mu: -0.075825348  nElectrons: 1146.000000
	SubspaceRotationAdjust: set factor to 0.154
ElecMinimize: Iter:  13  F: -7082.140798873349922  |grad|_K:  4.515e-06  alpha:  3.625e-01  linmin: -6.409e-06  t[s]:   1130.16
	Linear fluid (dielectric constant: 64) occupying 0.783557 of unit cell:	Completed after 18 iterations at t[s]:   1134.19
	Linear fluid (dielectric constant: 64) occupying 0.783558 of unit cell:	Completed after 6 iterations at t[s]:   1137.21
	FillingsUpdate:  mu: -0.076710430  nElectrons: 1146.000000
	SubspaceRotationAdjust: set factor to 0.159
ElecMinimize: Iter:  14  F: -7082.141643995674713  |grad|_K:  3.566e-06  alpha:  3.090e-01  linmin: -2.080e-06  t[s]:   1141.68
	Linear fluid (dielectric constant: 64) occupying 0.783564 of unit cell:	Completed after 18 iterations at t[s]:   1146.33
	Linear fluid (dielectric constant: 64) occupying 0.783565 of unit cell:	Completed after 4 iterations at t[s]:   1149.35
	FillingsUpdate:  mu: -0.076819255  nElectrons: 1146.000000
	SubspaceRotationAdjust: set factor to 0.152
ElecMinimize: Iter:  15  F: -7082.142211790453075  |grad|_K:  3.614e-06  alpha:  3.338e-01  linmin: -1.898e-06  t[s]:   1153.82
	Linear fluid (dielectric constant: 64) occupying 0.783574 of unit cell:	Completed after 19 iterations at t[s]:   1157.84
	Linear fluid (dielectric constant: 64) occupying 0.783573 of unit cell:	Completed after 5 iterations at t[s]:   1160.88
	FillingsUpdate:  mu: -0.076116049  nElectrons: 1146.000000
	SubspaceRotationAdjust: set factor to 0.157
ElecMinimize: Iter:  16  F: -7082.142728246932165  |grad|_K:  2.428e-06  alpha:  2.955e-01  linmin:  5.890e-07  t[s]:   1165.36
	Linear fluid (dielectric constant: 64) occupying 0.783572 of unit cell:	Completed after 13 iterations at t[s]:   1169.33
	Linear fluid (dielectric constant: 64) occupying 0.783571 of unit cell:	Completed after 10 iterations at t[s]:   1172.39
	FillingsUpdate:  mu: -0.076312182  nElectrons: 1146.000000
	SubspaceRotationAdjust: set factor to 0.148
ElecMinimize: Iter:  17  F: -7082.143034731887383  |grad|_K:  2.720e-06  alpha:  3.892e-01  linmin:  2.430e-07  t[s]:   1176.85
	Linear fluid (dielectric constant: 64) occupying 0.783569 of unit cell:	Completed after 18 iterations at t[s]:   1180.87
	Linear fluid (dielectric constant: 64) occupying 0.783570 of unit cell:	Completed after 11 iterations at t[s]:   1184.00
	FillingsUpdate:  mu: -0.076158142  nElectrons: 1146.000000
	SubspaceRotationAdjust: set factor to 0.144
ElecMinimize: Iter:  18  F: -7082.143288628116352  |grad|_K:  1.802e-06  alpha:  2.573e-01  linmin:  7.841e-07  t[s]:   1188.48
	Linear fluid (dielectric constant: 64) occupying 0.783569 of unit cell:	Completed after 8 iterations at t[s]:   1192.36
	Linear fluid (dielectric constant: 64) occupying 0.783568 of unit cell:	Completed after 5 iterations at t[s]:   1195.39
	FillingsUpdate:  mu: -0.075913329  nElectrons: 1146.000000
	SubspaceRotationAdjust: set factor to 0.149
ElecMinimize: Iter:  19  F: -7082.143441004927809  |grad|_K:  1.585e-06  alpha:  3.520e-01  linmin:  5.183e-06  t[s]:   1199.88
	Linear fluid (dielectric constant: 64) occupying 0.783570 of unit cell:	Completed after 11 iterations at t[s]:   1203.80
	Linear fluid (dielectric constant: 64) occupying 0.783569 of unit cell:	Completed after 4 iterations at t[s]:   1206.77
	FillingsUpdate:  mu: -0.076000338  nElectrons: 1146.000000
	SubspaceRotationAdjust: set factor to 0.143
ElecMinimize: Iter:  20  F: -7082.143540976129771  |grad|_K:  1.338e-06  alpha:  3.001e-01  linmin: -1.122e-05  t[s]:   1211.24
	Linear fluid (dielectric constant: 64) occupying 0.783573 of unit cell:	Completed after 11 iterations at t[s]:   1215.16
	Linear fluid (dielectric constant: 64) occupying 0.783573 of unit cell:	Completed after 0 iterations at t[s]:   1218.12
	FillingsUpdate:  mu: -0.076046417  nElectrons: 1146.000000
	SubspaceRotationAdjust: set factor to 0.143
ElecMinimize: Iter:  21  F: -7082.143614385367073  |grad|_K:  1.063e-06  alpha:  3.042e-01  linmin: -1.234e-05  t[s]:   1222.53
	Linear fluid (dielectric constant: 64) occupying 0.783579 of unit cell:	Completed after 11 iterations at t[s]:   1226.46
	Linear fluid (dielectric constant: 64) occupying 0.783579 of unit cell:	Completed after 0 iterations at t[s]:   1229.37
	FillingsUpdate:  mu: -0.075855677  nElectrons: 1146.000000
	SubspaceRotationAdjust: set factor to 0.141
ElecMinimize: Iter:  22  F: -7082.143661501185306  |grad|_K:  8.607e-07  alpha:  3.088e-01  linmin: -1.814e-05  t[s]:   1233.84
	Linear fluid (dielectric constant: 64) occupying 0.783585 of unit cell:	Completed after 8 iterations at t[s]:   1237.73
	Linear fluid (dielectric constant: 64) occupying 0.783586 of unit cell:	Completed after 1 iterations at t[s]:   1240.69
	FillingsUpdate:  mu: -0.075852113  nElectrons: 1146.000000
	SubspaceRotationAdjust: set factor to 0.148
ElecMinimize: Iter:  23  F: -7082.143695615934121  |grad|_K:  7.320e-07  alpha:  3.396e-01  linmin: -2.775e-05  t[s]:   1251.76
	Linear fluid (dielectric constant: 64) occupying 0.783591 of unit cell:	Completed after 10 iterations at t[s]:   1257.25
	Linear fluid (dielectric constant: 64) occupying 0.783591 of unit cell:	Completed after 0 iterations at t[s]:   1264.24
	FillingsUpdate:  mu: -0.075891797  nElectrons: 1146.000000
	SubspaceRotationAdjust: set factor to 0.149
ElecMinimize: Iter:  24  F: -7082.143719917450653  |grad|_K:  6.609e-07  alpha:  3.302e-01  linmin: -2.151e-07  t[s]:   1268.64
	Linear fluid (dielectric constant: 64) occupying 0.783596 of unit cell:	Completed after 5 iterations at t[s]:   1272.48
	Linear fluid (dielectric constant: 64) occupying 0.783595 of unit cell:	Completed after 2 iterations at t[s]:   1275.43
	FillingsUpdate:  mu: -0.075800896  nElectrons: 1146.000000
	SubspaceRotationAdjust: set factor to 0.153
ElecMinimize: Iter:  25  F: -7082.143736775125035  |grad|_K:  5.637e-07  alpha:  2.916e-01  linmin: -2.690e-06  t[s]:   1279.88
	Linear fluid (dielectric constant: 64) occupying 0.783599 of unit cell:	Completed after 5 iterations at t[s]:   1283.72
	Linear fluid (dielectric constant: 64) occupying 0.783600 of unit cell:	Completed after 0 iterations at t[s]:   1286.64
	FillingsUpdate:  mu: -0.075766680  nElectrons: 1146.000000
	SubspaceRotationAdjust: set factor to 0.153
ElecMinimize: Iter:  26  F: -7082.143750068802547  |grad|_K:  4.708e-07  alpha:  3.105e-01  linmin: -3.178e-05  t[s]:   1291.12
	Linear fluid (dielectric constant: 64) occupying 0.783603 of unit cell:	Completed after 5 iterations at t[s]:   1294.95
	Linear fluid (dielectric constant: 64) occupying 0.783604 of unit cell:	Completed after 0 iterations at t[s]:   1297.85
	FillingsUpdate:  mu: -0.075846927  nElectrons: 1146.000000
	SubspaceRotationAdjust: set factor to 0.158
ElecMinimize: Iter:  27  F: -7082.143760078462947  |grad|_K:  4.077e-07  alpha:  3.205e-01  linmin: -2.609e-05  t[s]:   1302.36
	Linear fluid (dielectric constant: 64) occupying 0.783608 of unit cell:	Completed after 5 iterations at t[s]:   1306.22
	Linear fluid (dielectric constant: 64) occupying 0.783608 of unit cell:	Completed after 0 iterations at t[s]:   1309.12
	FillingsUpdate:  mu: -0.075779286  nElectrons: 1146.000000
	SubspaceRotationAdjust: set factor to 0.159
ElecMinimize: Iter:  28  F: -7082.143768060162074  |grad|_K:  3.696e-07  alpha:  3.408e-01  linmin: -3.441e-05  t[s]:   1313.58
	Linear fluid (dielectric constant: 64) occupying 0.783614 of unit cell:	Completed after 5 iterations at t[s]:   1317.44
	Linear fluid (dielectric constant: 64) occupying 0.783612 of unit cell:	Completed after 3 iterations at t[s]:   1320.42
	FillingsUpdate:  mu: -0.075702961  nElectrons: 1146.000000
	SubspaceRotationAdjust: set factor to 0.152
ElecMinimize: Iter:  29  F: -7082.143772291009554  |grad|_K:  2.965e-07  alpha:  2.396e-01  linmin: -2.037e-05  t[s]:   1324.94
	Linear fluid (dielectric constant: 64) occupying 0.783615 of unit cell:	Completed after 4 iterations at t[s]:   1328.75
	Linear fluid (dielectric constant: 64) occupying 0.783616 of unit cell:	Completed after 0 iterations at t[s]:   1331.66
	FillingsUpdate:  mu: -0.075731221  nElectrons: 1146.000000
	SubspaceRotationAdjust: set factor to 0.183
ElecMinimize: Iter:  30  F: -7082.143776630102366  |grad|_K:  2.232e-07  alpha:  3.280e-01  linmin: -8.761e-05  t[s]:   1336.13
	Linear fluid (dielectric constant: 64) occupying 0.783618 of unit cell:	Completed after 4 iterations at t[s]:   1339.97
	Linear fluid (dielectric constant: 64) occupying 0.783618 of unit cell:	Completed after 0 iterations at t[s]:   1342.88
	FillingsUpdate:  mu: -0.075724625  nElectrons: 1146.000000
	SubspaceRotationAdjust: set factor to 0.183
ElecMinimize: Iter:  31  F: -7082.143778867818583  |grad|_K:  2.628e-07  alpha:  2.810e-01  linmin: -5.947e-06  t[s]:   1347.34
	Linear fluid (dielectric constant: 64) occupying 0.783621 of unit cell:	Completed after 4 iterations at t[s]:   1351.16
	Linear fluid (dielectric constant: 64) occupying 0.783620 of unit cell:	Completed after 2 iterations at t[s]:   1354.11
	FillingsUpdate:  mu: -0.075667795  nElectrons: 1146.000000
	SubspaceRotationAdjust: set factor to 0.178
ElecMinimize: Iter:  32  F: -7082.143780358721415  |grad|_K:  2.003e-07  alpha:  1.770e-01  linmin: -1.651e-06  t[s]:   1358.59
	Linear fluid (dielectric constant: 64) occupying 0.783620 of unit cell:	Completed after 1 iterations at t[s]:   1362.41
	Linear fluid (dielectric constant: 64) occupying 0.783621 of unit cell:	Completed after 2 iterations at t[s]:   1365.33
	FillingsUpdate:  mu: -0.075695784  nElectrons: 1146.000000
	SubspaceRotationAdjust: set factor to 0.207
ElecMinimize: Iter:  33  F: -7082.143782049733090  |grad|_K:  1.739e-07  alpha:  3.325e-01  linmin: -4.279e-06  t[s]:   1369.82
	Linear fluid (dielectric constant: 64) occupying 0.783622 of unit cell:	Completed after 3 iterations at t[s]:   1373.64
	Linear fluid (dielectric constant: 64) occupying 0.783622 of unit cell:	Completed after 0 iterations at t[s]:   1376.55
	FillingsUpdate:  mu: -0.075705082  nElectrons: 1146.000000
	SubspaceRotationAdjust: set factor to 0.184
ElecMinimize: Iter:  34  F: -7082.143783195318974  |grad|_K:  1.992e-07  alpha:  2.711e-01  linmin:  2.605e-05  t[s]:   1381.03
	Linear fluid (dielectric constant: 64) occupying 0.783622 of unit cell:	Completed after 3 iterations at t[s]:   1384.84
	Linear fluid (dielectric constant: 64) occupying 0.783622 of unit cell:	Completed after 0 iterations at t[s]:   1387.76
	FillingsUpdate:  mu: -0.075682899  nElectrons: 1146.000000
	SubspaceRotationAdjust: set factor to 0.186
ElecMinimize: Iter:  35  F: -7082.143784194592627  |grad|_K:  1.329e-07  alpha:  2.231e-01  linmin:  5.230e-06  t[s]:   1392.23
	Linear fluid (dielectric constant: 64) occupying 0.783622 of unit cell:	Completed after 0 iterations at t[s]:   1396.32
ElecMinimize: 	Predicted alpha/alphaT>3.000000, increasing alphaT to 6.693541e-01.
	Linear fluid (dielectric constant: 64) occupying 0.783622 of unit cell:	Completed after 3 iterations at t[s]:   1399.81
	Linear fluid (dielectric constant: 64) occupying 0.783622 of unit cell:	Completed after 2 iterations at t[s]:   1402.74
	FillingsUpdate:  mu: -0.075670218  nElectrons: 1146.000000
	SubspaceRotationAdjust: set factor to 0.171
ElecMinimize: Iter:  36  F: -7082.143784962526297  |grad|_K:  1.659e-07  alpha:  3.313e-01  linmin:  1.606e-05  t[s]:   1407.23
	Linear fluid (dielectric constant: 64) occupying 0.783621 of unit cell:	Completed after 3 iterations at t[s]:   1411.07
	Linear fluid (dielectric constant: 64) occupying 0.783622 of unit cell:	Completed after 1 iterations at t[s]:   1414.00
	FillingsUpdate:  mu: -0.075669881  nElectrons: 1146.000000
	SubspaceRotationAdjust: set factor to 0.141
ElecMinimize: Iter:  37  F: -7082.143785424170346  |grad|_K:  1.239e-07  alpha:  1.738e-01  linmin:  2.734e-05  t[s]:   1418.44
	Linear fluid (dielectric constant: 64) occupying 0.783621 of unit cell:	Completed after 0 iterations at t[s]:   1422.23
ElecMinimize: 	Predicted alpha/alphaT>3.000000, increasing alphaT to 5.213347e-01.
	Linear fluid (dielectric constant: 64) occupying 0.783621 of unit cell:	Completed after 3 iterations at t[s]:   1425.23
	Linear fluid (dielectric constant: 64) occupying 0.783621 of unit cell:	Completed after 0 iterations at t[s]:   1428.16
	FillingsUpdate:  mu: -0.075675925  nElectrons: 1146.000000
	SubspaceRotationAdjust: set factor to 0.118
ElecMinimize: Iter:  38  F: -7082.143785974681123  |grad|_K:  1.273e-07  alpha:  3.219e-01  linmin:  2.604e-05  t[s]:   1432.58
	Linear fluid (dielectric constant: 64) occupying 0.783620 of unit cell:	Completed after 2 iterations at t[s]:   1436.37
	Linear fluid (dielectric constant: 64) occupying 0.783621 of unit cell:	Completed after 0 iterations at t[s]:   1439.35
	FillingsUpdate:  mu: -0.075668939  nElectrons: 1146.000000
	SubspaceRotationAdjust: set factor to 0.0946
ElecMinimize: Iter:  39  F: -7082.143786333702337  |grad|_K:  1.185e-07  alpha:  1.839e-01  linmin:  3.065e-05  t[s]:   1443.75
	Linear fluid (dielectric constant: 64) occupying 0.783620 of unit cell:	Completed after 1 iterations at t[s]:   1447.55
	Linear fluid (dielectric constant: 64) occupying 0.783620 of unit cell:	Completed after 0 iterations at t[s]:   1450.55
	FillingsUpdate:  mu: -0.075666254  nElectrons: 1146.000000
	SubspaceRotationAdjust: set factor to 0.12
ElecMinimize: Iter:  40  F: -7082.143786620948049  |grad|_K:  8.059e-08  alpha:  1.962e-01  linmin: -5.014e-05  t[s]:   1454.93
	Linear fluid (dielectric constant: 64) occupying 0.783620 of unit cell:	Completed after 2 iterations at t[s]:   1458.73
	Linear fluid (dielectric constant: 64) occupying 0.783620 of unit cell:	Completed after 0 iterations at t[s]:   1461.75
ElecMinimize: 	Step increased F by 1.570152e-08, reducing alpha to 7.776678e-03.
	Linear fluid (dielectric constant: 64) occupying 0.783620 of unit cell:	Completed after 0 iterations at t[s]:   1468.81
ElecMinimize: 	Step increased F by 2.211527e-08, reducing alpha to 7.776678e-04.
	Linear fluid (dielectric constant: 64) occupying 0.783620 of unit cell:	Completed after 0 iterations at t[s]:   1479.90
ElecMinimize: 	Step increased F by 2.051274e-08, reducing alpha to 7.776678e-05.
ElecMinimize: 	Step failed to reduce F after 3 attempts. Quitting step.
ElecMinimize: 	Undoing step.
	Linear fluid (dielectric constant: 64) occupying 0.783620 of unit cell:	Completed after 0 iterations at t[s]:   1490.01
ElecMinimize: 	Step failed: resetting search direction.
	FillingsUpdate:  mu: -0.075671971  nElectrons: 1146.000000
	SubspaceRotationAdjust: set factor to 0.114
ElecMinimize: Iter:  41  F: -7082.143786600475323  |grad|_K:  1.118e-07  alpha:  7.777e-05
	Linear fluid (dielectric constant: 64) occupying 0.783620 of unit cell:	Completed after 2 iterations at t[s]:   1499.94
	Linear fluid (dielectric constant: 64) occupying 0.783620 of unit cell:	Completed after 0 iterations at t[s]:   1502.94
	FillingsUpdate:  mu: -0.075661157  nElectrons: 1146.000000
	SubspaceRotationAdjust: set factor to 0.089
ElecMinimize: Iter:  42  F: -7082.143786631023431  |grad|_K:  1.068e-07  alpha:  8.218e-02  linmin:  5.522e-04  t[s]:   1507.34
	Linear fluid (dielectric constant: 64) occupying 0.783620 of unit cell:	Completed after 0 iterations at t[s]:   1511.10
ElecMinimize: 	Predicted alpha/alphaT>3.000000, increasing alphaT to 2.465361e-01.
	Linear fluid (dielectric constant: 64) occupying 0.783620 of unit cell:	Completed after 0 iterations at t[s]:   1514.09
	Linear fluid (dielectric constant: 64) occupying 0.783620 of unit cell:	Completed after 0 iterations at t[s]:   1517.06
	FillingsUpdate:  mu: -0.075661230  nElectrons: 1146.000000
	SubspaceRotationAdjust: set factor to 0.122
ElecMinimize: Iter:  43  F: -7082.143786900942359  |grad|_K:  9.621e-08  alpha:  2.937e-01  linmin:  2.591e-07  t[s]:   1521.45
	Linear fluid (dielectric constant: 64) occupying 0.783620 of unit cell:	Completed after 3 iterations at t[s]:   1525.29
	Linear fluid (dielectric constant: 64) occupying 0.783620 of unit cell:	Completed after 0 iterations at t[s]:   1528.31
	FillingsUpdate:  mu: -0.075667403  nElectrons: 1146.000000
	SubspaceRotationAdjust: set factor to 0.108
ElecMinimize: Iter:  44  F: -7082.143787059506394  |grad|_K:  1.539e-07  alpha:  8.282e-02  linmin:  3.540e-04  t[s]:   1532.73
ElecMinimize: 	Bad step direction: g.d > 0.
ElecMinimize: 	Undoing step.
	Linear fluid (dielectric constant: 64) occupying 0.783620 of unit cell:	Completed after 0 iterations at t[s]:   1536.42
ElecMinimize: 	Step failed: resetting search direction.
	FillingsUpdate:  mu: -0.075667403  nElectrons: 1146.000000
	SubspaceRotationAdjust: set factor to 0.144
ElecMinimize: Iter:  45  F: -7082.143787059520946  |grad|_K:  1.514e-07  alpha:  0.000e+00
	Linear fluid (dielectric constant: 64) occupying 0.783620 of unit cell:	Completed after 2 iterations at t[s]:   1544.58
	Linear fluid (dielectric constant: 64) occupying 0.783620 of unit cell:	Completed after 0 iterations at t[s]:   1547.59
ElecMinimize: 	Step increased F by 1.588678e-07, reducing alpha to 3.040750e-03.
	Linear fluid (dielectric constant: 64) occupying 0.783620 of unit cell:	Completed after 0 iterations at t[s]:   1554.64
ElecMinimize: 	Step increased F by 1.574599e-07, reducing alpha to 3.040750e-04.
	Linear fluid (dielectric constant: 64) occupying 0.783620 of unit cell:	Completed after 0 iterations at t[s]:   1561.68
ElecMinimize: 	Step increased F by 1.577719e-07, reducing alpha to 3.040750e-05.
ElecMinimize: 	Step failed to reduce F after 3 attempts. Quitting step.
ElecMinimize: 	Undoing step.
	Linear fluid (dielectric constant: 64) occupying 0.783620 of unit cell:	Completed after 0 iterations at t[s]:   1568.73
ElecMinimize: 	Step failed along negative gradient direction.
ElecMinimize: Probably at roundoff error limit. (Stopping)
Setting wave functions to eigenvectors of Hamiltonian
Single-point solvation energy estimate, DeltaF = -0.364576402414968

# Ionic positions in cartesian coordinates:
ion Ni  32.181130469222218  -0.000028463333331   0.611327655000000 0
ion Ni   5.363545148055554  -0.000028463333331   5.974853827499987 0
ion Ni  32.181130469222218  -5.363543250499998   5.974853827499987 0
ion Ni   5.363545148055554  -5.363543250499998   0.611327655000000 0
ion Ni  32.181130469222218 -10.727058037666666   0.611327655000000 0
ion Ni  32.181130469222218 -21.454087611999999   0.611327655000000 0
ion Ni   5.363545148055554 -21.454087611999999   5.974853827499987 0
ion Ni   5.363545148055554 -10.727058037666666   5.974853827499987 0
ion Ni  32.181130469222218 -16.090572824833334   5.974853827499987 0
ion Ni  32.181130469222218 -26.817602399166635   5.974853827499987 0
ion Ni   5.363545148055554 -26.817602399166635   0.611327655000000 0
ion Ni   5.363545148055554 -16.090572824833334   0.611327655000000 0
ion Ni  10.727071320555536  -0.000028463333331   0.611327655000000 0
ion Ni  21.454100894888885  -0.000028463333331   0.611327655000000 0
ion Ni  21.454100894888885  -5.363543250499998   5.974853827499987 0
ion Ni  10.727071320555536  -5.363543250499998   5.974853827499987 0
ion Ni  16.090574722388887  -5.363543250499998   0.611327655000000 0
ion Ni  26.817604296722191  -5.363543250499998   0.611327655000000 0
ion Ni  26.817604296722191  -0.000028463333331   5.974853827499987 0
ion Ni  16.090574722388887  -0.000028463333331   5.974853827499987 0
ion Ni  10.727071320555536 -10.727058037666666   0.611327655000000 0
ion Ni  21.454100894888885 -21.454087611999999   0.611327655000000 0
ion Ni  26.817604296722191 -21.454087611999999   5.974853827499987 0
ion Ni  16.090574722388887 -10.727058037666666   5.974853827499987 0
ion Ni  21.454100894888885 -16.090572824833334   5.974853827499987 0
ion Ni  10.727071320555536 -26.817602399166635   5.974853827499987 0
ion Ni  16.090574722388887 -26.817602399166635   0.611327655000000 0
ion Ni  26.817604296722191 -16.090572824833334   0.611327655000000 0
ion Ni  10.727071320555536 -21.454087611999999   0.611327655000000 0
ion Ni  21.454100894888885 -10.727058037666666   0.611327655000000 0
ion Ni  26.817604296722191 -10.727058037666666   5.974853827499987 0
ion Ni  16.090574722388887 -21.454087611999999   5.974853827499987 0
ion Ni  21.454100894888885 -26.817602399166635   5.974853827499987 0
ion Ni  10.727071320555536 -16.090572824833334   5.974853827499987 0
ion Ni  16.090574722388887 -16.090572824833334   0.611327655000000 0
ion Ni  26.817604296722191 -26.817602399166635   0.611327655000000 0
ion S   4.232269668888877  -4.232271970733331   7.106125994099986 0
ion S  27.948891161222189 -27.948885064266637   4.843581660899996 0
ion S   1.131317225388885 -27.948885064266637   1.742599821599998 0
ion S   9.595784456055537  -4.232271970733331  10.207107833399981 0
ion S  27.948891161222189  -9.595786757899997  10.207107833399981 0
ion S   4.232269668888877  -1.131311128433331   1.742599821599998 0
ion S   9.595784456055537  -1.131311128433331   4.843581660899996 0
ion S   1.131317225388885  -9.595786757899997   7.106125994099986 0
ion S   4.232269668888877 -14.959301545066650   7.106125994099986 0
ion S  27.948891161222189 -17.221855489933301   4.843581660899996 0
ion S   1.131317225388885 -17.221855489933301   1.742599821599998 0
ion S   9.595784456055537 -14.959301545066650  10.207107833399981 0
ion S  27.948891161222189 -20.322816332233330  10.207107833399981 0
ion S   4.232269668888877 -22.585370277100001   1.742599821599998 0
ion S   9.595784456055537 -22.585370277100001   4.843581660899996 0
ion S   1.131317225388885 -20.322816332233330   7.106125994099986 0
ion S  14.959299243222205  -4.232271970733330   7.106125994099986 0
ion S  17.221861586888888 -27.948885064266637   4.843581660899996 0
ion S  17.221861586888888  -9.595786757899997  10.207107833399981 0
ion S  14.959299243222205  -1.131311128433331   1.742599821599998 0
ion S  20.322814030388887  -1.131311128433331   4.843581660899996 0
ion S  22.585376374055553  -9.595786757899997   7.106125994099986 0
ion S  22.585376374055553 -27.948885064266637   1.742599821599998 0
ion S  20.322814030388887  -4.232271970733330  10.207107833399981 0
ion S   4.232269668888877 -25.686331119399970   7.106125994099986 0
ion S  27.948891161222189  -6.494825915599990   4.843581660899996 0
ion S   1.131317225388885  -6.494825915599990   1.742599821599998 0
ion S   9.595784456055537 -25.686331119399970  10.207107833399981 0
ion S  27.948891161222189 -31.049845906566667  10.207107833399981 0
ion S   4.232269668888877 -11.858340702766650   1.742599821599998 0
ion S   9.595784456055537 -11.858340702766650   4.843581660899996 0
ion S   1.131317225388885 -31.049845906566667   7.106125994099986 0
ion S  25.686328817555523  -4.232271970733330   7.106125994099986 0
ion S   6.494832012555547 -27.948885064266637   4.843581660899996 0
ion S   6.494832012555547  -9.595786757899997  10.207107833399981 0
ion S  25.686328817555523  -1.131311128433331   1.742599821599998 0
ion S  31.049843604722220  -1.131311128433331   4.843581660899996 0
ion S  11.858346799722206  -9.595786757899997   7.106125994099986 0
ion S  11.858346799722206 -27.948885064266637   1.742599821599998 0
ion S  31.049843604722220  -4.232271970733330  10.207107833399981 0
ion S  14.959299243222205 -14.959301545066650   7.106125994099986 0
ion S  17.221861586888888 -17.221855489933301   4.843581660899996 0
ion S  22.585376374055553 -17.221855489933301   1.742599821599998 0
ion S  20.322814030388887 -14.959301545066650  10.207107833399981 0
ion S  17.221861586888888 -20.322816332233330  10.207107833399981 0
ion S  14.959299243222205 -22.585370277100001   1.742599821599998 0
ion S  20.322814030388887 -22.585370277100001   4.843581660899996 0
ion S  22.585376374055553 -20.322816332233330   7.106125994099986 0
ion S  14.959299243222205 -25.686331119399970   7.106125994099986 0
ion S  17.221861586888888  -6.494825915599990   4.843581660899996 0
ion S  22.585376374055553  -6.494825915599990   1.742599821599998 0
ion S  20.322814030388887 -25.686331119399970  10.207107833399981 0
ion S  17.221861586888888 -31.049845906566667  10.207107833399981 0
ion S  14.959299243222205 -11.858340702766650   1.742599821599998 0
ion S  20.322814030388887 -11.858340702766650   4.843581660899996 0
ion S  22.585376374055553 -31.049845906566667   7.106125994099986 0
ion S  25.686328817555523 -14.959301545066650   7.106125994099986 0
ion S   6.494832012555547 -17.221855489933301   4.843581660899996 0
ion S  11.858346799722206 -17.221855489933301   1.742599821599998 0
ion S  31.049843604722220 -14.959301545066650  10.207107833399981 0
ion S   6.494832012555547 -20.322816332233330  10.207107833399981 0
ion S  25.686328817555523 -22.585370277100001   1.742599821599998 0
ion S  31.049843604722220 -22.585370277100001   4.843581660899996 0
ion S  11.858346799722206 -20.322816332233330   7.106125994099986 0
ion S  25.686328817555523 -25.686331119399970   7.106125994099986 0
ion S   6.494832012555547  -6.494825915599990   4.843581660899996 0
ion S  11.858346799722206  -6.494825915599990   1.742599821599998 0
ion S  31.049843604722220 -25.686331119399970  10.207107833399981 0
ion S   6.494832012555547 -31.049845906566667  10.207107833399981 0
ion S  25.686328817555523 -11.858340702766650   1.742599821599998 0
ion S  31.049843604722220 -11.858340702766650   4.843581660899996 0
ion S  11.858346799722206 -31.049845906566667   7.106125994099986 0
ion S  12.642319711647122 -25.793307367430124  12.529104720878010 1
ion S  12.949161071604479 -22.501860378998561  14.577618082938031 1
ion S  14.175315797930734 -19.431621242138309  12.221965471519050 1
ion S   7.350530056143484 -12.949947666415195  15.382043606681107 1
ion S   9.079385134805818 -11.638497314833417  12.305546182557617 1
ion S  14.317847675582973  -8.144240581830255  11.916515796245223 1
ion S  19.938608889993990 -29.081125495075227  11.890917887832625 1
ion S  23.286641178187939 -35.049094680762607  11.885063797839654 1
ion Na  26.240017054343785 -25.200739029512498  12.259180078467459 1
ion Na   3.919583914767282 -16.080523117976600  12.434641665509405 1

# Forces in Cartesian coordinates:
force Ni   0.022531877012583   0.009985285157748   0.034994879265379 0
force Ni  -0.002857413912015  -0.000537887922313   0.007636305336794 0
force Ni   0.002089614070569  -0.000310759811912   0.007216997987633 0
force Ni  -0.022899588093404   0.009862359380918   0.034586399207830 0
force Ni   0.022865539823445   0.010140710449953   0.034958879763402 0
force Ni   0.022663678051031   0.010025846010955   0.035112313912440 0
force Ni  -0.002779889766757  -0.001285903683332   0.007348678999249 0
force Ni  -0.001769740418357  -0.005671189657882  -0.000311641572755 0
force Ni   0.002247513824407  -0.000352543838915   0.007077728512314 0
force Ni   0.001759310029638  -0.000517935371022   0.007618296270081 0
force Ni  -0.022476866187486   0.010267082366466   0.034789170490672 0
force Ni  -0.022715626751293   0.010701198550129   0.034878236890878 0
force Ni   0.022806281630061   0.010287416301081   0.034593812169601 0
force Ni   0.023293920920487   0.010047847565097   0.034094004584253 0
force Ni   0.004418842100688  -0.002343317892450  -0.000502823239039 0
force Ni   0.000872345196990  -0.000588893384020   0.008517290625337 0
force Ni  -0.023373234622550   0.010522007369357   0.033170091895194 0
force Ni  -0.022730289559094   0.010261788050276   0.034914003356818 0
force Ni  -0.001975505074249  -0.000598299006295   0.007778138755824 0
force Ni   0.001796634293088  -0.001246339113529  -0.007091916272443 0
force Ni   0.022775485338522   0.010392964707870   0.034815122703065 0
force Ni   0.022901211923168   0.010223009441380   0.033930618160092 0
force Ni  -0.001277830364793  -0.000393127647693   0.007613497757659 0
force Ni  -0.004610026049734  -0.003419943034512   0.000270175079292 0
force Ni   0.002558730072243  -0.000748112851127   0.007652525135804 0
force Ni   0.008134654843436  -0.000976568876005   0.000885653081670 0
force Ni  -0.022731884994395   0.010197077773005   0.034195496171782 0
force Ni  -0.022454828281675   0.009958369891318   0.034996021567997 0
force Ni   0.022873207807099   0.010439443078945   0.033990202789750 0
force Ni   0.022495155194397   0.010425712360985   0.034646434167192 0
force Ni  -0.001877369242328  -0.000218078809620   0.007849960323640 0
force Ni  -0.006243652441777  -0.002938591279695  -0.000462169371164 0
force Ni   0.006037142174611  -0.002366124381020  -0.002535103677466 0
force Ni   0.006143887310007   0.002687649085582  -0.004359086478206 0
force Ni  -0.022961580658481   0.009897126108786   0.034419060388078 0
force Ni  -0.022723469282617   0.010207566528256   0.034997888756199 0
force S  -0.004871003876696   0.003463503268478   0.002067362481026 0
force S   0.001853063130616   0.001333943510933  -0.013562480334144 0
force S  -0.000876449809982  -0.007621950678645  -0.013864502845779 0
force S   0.003951073249199  -0.002041175214954  -0.016113090404044 0
force S   0.000603545463300  -0.007591456126541  -0.016526434596475 0
force S   0.001096050135416  -0.007282977748555  -0.014101073635017 0
force S  -0.000879263715728   0.001380611264703  -0.012160285467168 0
force S   0.004047887853155   0.004704114825566   0.000300722418480 0
force S  -0.007044118591466   0.004579555435557  -0.006084865972669 0
force S   0.001842372627758   0.001594892631619  -0.014139067186778 0
force S  -0.001191771490702  -0.007464114095506  -0.014068457636807 0
force S   0.006351631833674  -0.022323989116919  -0.000485362587568 0
force S   0.002098743123579  -0.003086754547888  -0.018543289561977 0
force S   0.001148601002005  -0.007475595210919  -0.014060825654254 0
force S  -0.002284059760956   0.002360425906492  -0.014587996681615 0
force S   0.005848992505698   0.003890718389746   0.000909935143988 0
force S  -0.004512886834070   0.006967109693254  -0.001624811374584 0
force S   0.000565847975463   0.003363469318411  -0.013458922904748 0
force S   0.007956555495002  -0.010471780983143  -0.010874486413874 0
force S  -0.000513326799357  -0.008711035976998  -0.015965180952195 0
[...]
ElecMinimize: Iter:  13  F: -7082.192308720359506  |grad|_K:  1.479e-07  alpha:  0.000e+00
	Linear fluid (dielectric constant: 64) occupying 0.782098 of unit cell:	Completed after 0 iterations at t[s]:  38306.29
ElecMinimize: 	Predicted alpha/alphaT>3.000000, increasing alphaT to 1.006541e-02.
	Linear fluid (dielectric constant: 64) occupying 0.782098 of unit cell:	Completed after 0 iterations at t[s]:  38309.27
ElecMinimize: 	Predicted alpha/alphaT>3.000000, increasing alphaT to 3.019623e-02.
	Linear fluid (dielectric constant: 64) occupying 0.782098 of unit cell:	Completed after 1 iterations at t[s]:  38312.25
	Linear fluid (dielectric constant: 64) occupying 0.782098 of unit cell:	Completed after 0 iterations at t[s]:  38315.20
ElecMinimize: 	Step increased F by 2.505476e-08, reducing alpha to 1.708496e-03.
	Linear fluid (dielectric constant: 64) occupying 0.782098 of unit cell:	Completed after 0 iterations at t[s]:  38322.27
ElecMinimize: 	Step increased F by 7.989092e-08, reducing alpha to 1.708496e-04.
	Linear fluid (dielectric constant: 64) occupying 0.782098 of unit cell:	Completed after 0 iterations at t[s]:  38329.37
ElecMinimize: 	Step increased F by 8.543975e-08, reducing alpha to 1.708496e-05.
ElecMinimize: 	Step failed to reduce F after 3 attempts. Quitting step.
ElecMinimize: 	Undoing step.
	Linear fluid (dielectric constant: 64) occupying 0.782098 of unit cell:	Completed after 0 iterations at t[s]:  38336.38
ElecMinimize: 	Step failed along negative gradient direction.
ElecMinimize: Probably at roundoff error limit. (Stopping)
Setting wave functions to eigenvectors of Hamiltonian

# Ionic positions in cartesian coordinates:
ion Ni  32.181130469222218  -0.000028463333331   0.611327655000000 0
ion Ni   5.363545148055554  -0.000028463333331   5.974853827499987 0
ion Ni  32.181130469222218  -5.363543250499998   5.974853827499987 0
ion Ni   5.363545148055554  -5.363543250499998   0.611327655000000 0
ion Ni  32.181130469222218 -10.727058037666666   0.611327655000000 0
ion Ni  32.181130469222218 -21.454087611999999   0.611327655000000 0
ion Ni   5.363545148055554 -21.454087611999999   5.974853827499987 0
ion Ni   5.363545148055554 -10.727058037666666   5.974853827499987 0
ion Ni  32.181130469222218 -16.090572824833334   5.974853827499987 0
ion Ni  32.181130469222218 -26.817602399166635   5.974853827499987 0
ion Ni   5.363545148055554 -26.817602399166635   0.611327655000000 0
ion Ni   5.363545148055554 -16.090572824833334   0.611327655000000 0
ion Ni  10.727071320555536  -0.000028463333331   0.611327655000000 0
ion Ni  21.454100894888885  -0.000028463333331   0.611327655000000 0
ion Ni  21.454100894888885  -5.363543250499998   5.974853827499987 0
ion Ni  10.727071320555536  -5.363543250499998   5.974853827499987 0
ion Ni  16.090574722388887  -5.363543250499998   0.611327655000000 0
ion Ni  26.817604296722191  -5.363543250499998   0.611327655000000 0
ion Ni  26.817604296722191  -0.000028463333331   5.974853827499987 0
ion Ni  16.090574722388887  -0.000028463333331   5.974853827499987 0
ion Ni  10.727071320555536 -10.727058037666666   0.611327655000000 0
ion Ni  21.454100894888885 -21.454087611999999   0.611327655000000 0
ion Ni  26.817604296722191 -21.454087611999999   5.974853827499987 0
ion Ni  16.090574722388887 -10.727058037666666   5.974853827499987 0
ion Ni  21.454100894888885 -16.090572824833334   5.974853827499987 0
ion Ni  10.727071320555536 -26.817602399166635   5.974853827499987 0
ion Ni  16.090574722388887 -26.817602399166635   0.611327655000000 0
ion Ni  26.817604296722191 -16.090572824833334   0.611327655000000 0
ion Ni  10.727071320555536 -21.454087611999999   0.611327655000000 0
ion Ni  21.454100894888885 -10.727058037666666   0.611327655000000 0
ion Ni  26.817604296722191 -10.727058037666666   5.974853827499987 0
ion Ni  16.090574722388887 -21.454087611999999   5.974853827499987 0
ion Ni  21.454100894888885 -26.817602399166635   5.974853827499987 0
ion Ni  10.727071320555536 -16.090572824833334   5.974853827499987 0
ion Ni  16.090574722388887 -16.090572824833334   0.611327655000000 0
ion Ni  26.817604296722191 -26.817602399166635   0.611327655000000 0
ion S   4.232269668888877  -4.232271970733331   7.106125994099986 0
ion S  27.948891161222189 -27.948885064266637   4.843581660899996 0
ion S   1.131317225388885 -27.948885064266637   1.742599821599998 0
ion S   9.595784456055537  -4.232271970733331  10.207107833399981 0
ion S  27.948891161222189  -9.595786757899997  10.207107833399981 0
ion S   4.232269668888877  -1.131311128433331   1.742599821599998 0
ion S   9.595784456055537  -1.131311128433331   4.843581660899996 0
ion S   1.131317225388885  -9.595786757899997   7.106125994099986 0
ion S   4.232269668888877 -14.959301545066650   7.106125994099986 0
ion S  27.948891161222189 -17.221855489933301   4.843581660899996 0
ion S   1.131317225388885 -17.221855489933301   1.742599821599998 0
ion S   9.595784456055537 -14.959301545066650  10.207107833399981 0
ion S  27.948891161222189 -20.322816332233330  10.207107833399981 0
ion S   4.232269668888877 -22.585370277100001   1.742599821599998 0
ion S   9.595784456055537 -22.585370277100001   4.843581660899996 0
ion S   1.131317225388885 -20.322816332233330   7.106125994099986 0
ion S  14.959299243222205  -4.232271970733330   7.106125994099986 0
ion S  17.221861586888888 -27.948885064266637   4.843581660899996 0
ion S  17.221861586888888  -9.595786757899997  10.207107833399981 0
ion S  14.959299243222205  -1.131311128433331   1.742599821599998 0
ion S  20.322814030388887  -1.131311128433331   4.843581660899996 0
ion S  22.585376374055553  -9.595786757899997   7.106125994099986 0
ion S  22.585376374055553 -27.948885064266637   1.742599821599998 0
ion S  20.322814030388887  -4.232271970733330  10.207107833399981 0
ion S   4.232269668888877 -25.686331119399970   7.106125994099986 0
ion S  27.948891161222189  -6.494825915599990   4.843581660899996 0
ion S   1.131317225388885  -6.494825915599990   1.742599821599998 0
ion S   9.595784456055537 -25.686331119399970  10.207107833399981 0
ion S  27.948891161222189 -31.049845906566667  10.207107833399981 0
ion S   4.232269668888877 -11.858340702766650   1.742599821599998 0
ion S   9.595784456055537 -11.858340702766650   4.843581660899996 0
ion S   1.131317225388885 -31.049845906566667   7.106125994099986 0
ion S  25.686328817555523  -4.232271970733330   7.106125994099986 0
ion S   6.494832012555547 -27.948885064266637   4.843581660899996 0
ion S   6.494832012555547  -9.595786757899997  10.207107833399981 0
ion S  25.686328817555523  -1.131311128433331   1.742599821599998 0
ion S  31.049843604722220  -1.131311128433331   4.843581660899996 0
ion S  11.858346799722206  -9.595786757899997   7.106125994099986 0
ion S  11.858346799722206 -27.948885064266637   1.742599821599998 0
ion S  31.049843604722220  -4.232271970733330  10.207107833399981 0
ion S  14.959299243222205 -14.959301545066650   7.106125994099986 0
ion S  17.221861586888888 -17.221855489933301   4.843581660899996 0
ion S  22.585376374055553 -17.221855489933301   1.742599821599998 0
ion S  20.322814030388887 -14.959301545066650  10.207107833399981 0
ion S  17.221861586888888 -20.322816332233330  10.207107833399981 0
ion S  14.959299243222205 -22.585370277100001   1.742599821599998 0
ion S  20.322814030388887 -22.585370277100001   4.843581660899996 0
ion S  22.585376374055553 -20.322816332233330   7.106125994099986 0
ion S  14.959299243222205 -25.686331119399970   7.106125994099986 0
ion S  17.221861586888888  -6.494825915599990   4.843581660899996 0
ion S  22.585376374055553  -6.494825915599990   1.742599821599998 0
ion S  20.322814030388887 -25.686331119399970  10.207107833399981 0
ion S  17.221861586888888 -31.049845906566667  10.207107833399981 0
ion S  14.959299243222205 -11.858340702766650   1.742599821599998 0
ion S  20.322814030388887 -11.858340702766650   4.843581660899996 0
ion S  22.585376374055553 -31.049845906566667   7.106125994099986 0
ion S  25.686328817555523 -14.959301545066650   7.106125994099986 0
ion S   6.494832012555547 -17.221855489933301   4.843581660899996 0
ion S  11.858346799722206 -17.221855489933301   1.742599821599998 0
ion S  31.049843604722220 -14.959301545066650  10.207107833399981 0
ion S   6.494832012555547 -20.322816332233330  10.207107833399981 0
ion S  25.686328817555523 -22.585370277100001   1.742599821599998 0
ion S  31.049843604722220 -22.585370277100001   4.843581660899996 0
ion S  11.858346799722206 -20.322816332233330   7.106125994099986 0
ion S  25.686328817555523 -25.686331119399970   7.106125994099986 0
ion S   6.494832012555547  -6.494825915599990   4.843581660899996 0
ion S  11.858346799722206  -6.494825915599990   1.742599821599998 0
ion S  31.049843604722220 -25.686331119399970  10.207107833399981 0
ion S   6.494832012555547 -31.049845906566667  10.207107833399981 0
ion S  25.686328817555523 -11.858340702766650   1.742599821599998 0
ion S  31.049843604722220 -11.858340702766650   4.843581660899996 0
ion S  11.858346799722206 -31.049845906566667   7.106125994099986 0
ion S  12.614867761663664 -25.939491221272938  12.584712224144345 1
ion S  13.089301977689287 -22.689438637482262  14.703110001980786 1
ion S  14.212211513949494 -19.559254286191010  12.348324274085133 1
ion S   8.501086081197172 -12.153913026144558  15.528146889019263 1
ion S   9.529233494266224 -11.418949371826960  11.940840924273667 1
ion S  14.421063874057177  -7.932728205535928  11.985014177398947 1
ion S  19.902838180156579 -29.027527551077675  11.944877620799721 1
ion S  23.213783708514736 -35.002375930161143  12.036692250611027 1
ion Na  25.551987112595224 -25.531273467329726  15.636024320115666 1
ion Na   2.969572927078549 -17.020883511527121  15.849852738980466 1

# Forces in Cartesian coordinates:
force Ni   0.022612725067340   0.010025957021571   0.035012140030470 0
force Ni  -0.002837475054337  -0.000590489020476   0.007674027912828 0
force Ni   0.002174719180728  -0.000295409823131   0.007221739166396 0
force Ni  -0.022851005148123   0.009890844075541   0.034733216511159 0
force Ni   0.022834240909984   0.010187120875158   0.034958823282412 0
force Ni   0.022691904266751   0.010035852148402   0.035071794768475 0
force Ni  -0.002823858190019  -0.001110257198174   0.007571945647130 0
force Ni  -0.001062958894925  -0.004859167617144   0.000072491809109 0
force Ni   0.002629630546954  -0.000285561338081   0.007228220647344 0
force Ni   0.001759059106606  -0.000478480027317   0.007757388703329 0
force Ni  -0.022557134801554   0.010315230001870   0.034785621382661 0
force Ni  -0.022745301496825   0.010619597398670   0.034844143771781 0
force Ni   0.022944996026215   0.010353612081689   0.034711603491735 0
force Ni   0.023190248786495   0.009997816416148   0.033991259313772 0
force Ni   0.005688268845031  -0.001651025686700   0.000271377319483 0
force Ni   0.000861381014773  -0.000561256040250   0.008427638980887 0
force Ni  -0.023519202605004   0.010589775594321   0.033241477629548 0
force Ni  -0.022765735075572   0.010306274197871   0.034884087971066 0
force Ni  -0.002227884469104  -0.000619196933773   0.007996182308891 0
force Ni   0.001559059628134  -0.001233442626231  -0.007202714888788 0
force Ni   0.022773373261802   0.010316611288820   0.034798131873698 0
force Ni   0.023010562442837   0.010258384951337   0.033911738282757 0
force Ni  -0.001419110451070  -0.000772710137206   0.007881871210948 0
force Ni  -0.005467295691391  -0.002794924737017   0.001053391167443 0
force Ni   0.002593523280387  -0.000872515988586   0.007651229453618 0
force Ni   0.008241619018441  -0.001134993378389   0.000965849530224 0
force Ni  -0.022852470863789   0.010273101705081   0.034378125329992 0
force Ni  -0.022571728123739   0.010009267036271   0.035092607637218 0
force Ni   0.023008478510280   0.010452470030939   0.034164883131870 0
force Ni   0.022640709874772   0.010518202675143   0.034707871412322 0
force Ni  -0.001894576681005  -0.000310849803966   0.007815167987459 0
force Ni  -0.006803849759179  -0.002923651005263  -0.000106495531261 0
force Ni   0.006476570666062  -0.002703894715074  -0.002357226164192 0
force Ni   0.006214931825952   0.002691739045926  -0.002968738914996 0
force Ni  -0.023152408529700   0.010057102016248   0.034600933089449 0
force Ni  -0.022780262621797   0.010136399835716   0.034895243349776 0
force S  -0.004756888315248   0.003412227141607   0.001940043107785 0
force S   0.000969745403527   0.001784556858219  -0.013726301319297 0
force S  -0.000880830608536  -0.007681756899837  -0.014203104120956 0
force S   0.003669908068427  -0.002135006576860  -0.016013563070782 0
force S   0.000636432624336  -0.007748859944442  -0.016475297615548 0
force S   0.001091329222483  -0.007337802929672  -0.014321164661122 0
force S  -0.000880696296721   0.001278469658336  -0.011990470478426 0
force S   0.004197319815381   0.004686071048164   0.000387522912416 0
force S  -0.006648816882240   0.003614333810334   0.000549932590257 0
force S   0.001981327188455   0.001502529339645  -0.014107358946996 0
force S  -0.001085308007227  -0.007525368223691  -0.014251998564346 0
force S   0.001528869742868  -0.021919682487067   0.001758075201830 0
force S   0.000293044465492  -0.007708348741601  -0.016054233913185 0
force S   0.001132709946234  -0.007470264773036  -0.014267051875186 0
force S  -0.002003063883535   0.002599529455114  -0.013978240901235 0
force S   0.005900357863363   0.004234504267072   0.001471147844532 0
force S  -0.004362192649158   0.007102047393821  -0.002089001425691 0
force S   0.000650792434648   0.003401724321311  -0.013216874945073 0
force S   0.002183039260866  -0.007346804098887  -0.006242309734649 0
force S  -0.000392234460019  -0.008708970965546  -0.016096712868470 0
force S  -0.000646978596984   0.002108153565631  -0.011038283803315 0
force S   0.004885447999730   0.004180255378613   0.001609298582444 0
force S  -0.000662399648822  -0.008198260156098  -0.015277272240270 0
force S   0.001035107281316  -0.004860004374205  -0.006615331959249 0
force S  -0.004337623907604   0.003632730671664   0.001355935137851 0
force S   0.001478669204766   0.001292381818849  -0.015082173640426 0
force S  -0.000878798897256  -0.007461905925783  -0.014474127830752 0
force S  -0.003191125887857  -0.007252564727883  -0.001830806404581 0
force S  -0.000137212429371  -0.007479558904820  -0.015961883030607 0
force S   0.000146004192873  -0.008137377384966  -0.015200719912595 0
force S  -0.001337101669511   0.001073300487152  -0.018038739297725 0
force S   0.005293319718525   0.004254656391254   0.001822546899250 0
force S  -0.002342133215946   0.002488232966669   0.001283435613389 0
force S   0.002324491839525   0.001512081752842  -0.012741762309722 0
force S  -0.011450251229553   0.005407470968744  -0.003859038483985 0
force S   0.000583004798701  -0.007455489739448  -0.014645544479817 0
force S  -0.001672585175052   0.001397527750885  -0.014213707037587 0
force S   0.005226046739104   0.004691078507846  -0.005460392131485 0
force S  -0.000688295409693  -0.008179352935244  -0.015161741288505 0
force S  -0.000314064048761  -0.008233600309032  -0.016935167956174 0
force S  -0.003098356005520   0.004720457012113  -0.001071136409285 0
force S   0.001498095022761   0.002245076725308  -0.012699644567045 0
force S  -0.001207172634016  -0.007424360330778  -0.014233069334148 0
force S   0.006271821793044  -0.004951553945720  -0.017680222157249 0
force S   0.002398675810245  -0.003154308159531  -0.002302929984288 0
force S   0.000384669793311  -0.007798825857463  -0.015074415064083 0
force S  -0.002789827406323   0.001164402757078  -0.011471222898424 0
force S   0.004075743911289   0.003463376278357   0.001493867573138 0
force S  -0.000992339161339   0.002795793850317  -0.005477349501389 0
force S   0.002567186217633   0.002592973477593  -0.008056874326177 0
force S  -0.000152284048248  -0.008372314985788  -0.015715932345750 0
force S   0.008988910837749   0.000494936604611  -0.007701370496793 0
force S  -0.019648190590135  -0.015015655866455   0.007835352182435 0
force S  -0.000070571337890  -0.007915976942924  -0.016061325602221 0
force S  -0.003445917257109   0.001512591119129  -0.011835123566695 0
force S   0.008541348344858   0.003601384939716  -0.007800317288456 0
force S  -0.005958257297351   0.004215997050378   0.001564639677392 0
force S   0.002212763325703   0.001044315300807  -0.011942384989306 0
force S  -0.000272445302323  -0.008481711100978  -0.015719957469737 0
force S  -0.000585942574679  -0.007401304918846  -0.016552342087120 0
force S  -0.006178591315658  -0.004981572190849  -0.019584991914564 0
force S   0.000704014978567  -0.007552488811080  -0.014359296148461 0
force S  -0.001771505074848   0.001543265473749  -0.014279460689013 0
force S   0.000274848106916   0.003627985379708  -0.001983282994484 0
force S  -0.004403505767010   0.004151985602210  -0.000212196530136 0
force S   0.001334090896377   0.001311217700846  -0.013900846245549 0
force S  -0.000694429653219  -0.007347518356882  -0.014695375935351 0
force S  -0.000314095508376  -0.008444931125739  -0.016006455339355 0
force S  -0.002386052017450  -0.012572960586408  -0.017737253657471 0
force S   0.000809050517670  -0.007562018256645  -0.014150374189541 0
force S  -0.000606687148054   0.001059215273854  -0.013000954466051 0
force S   0.004051051128676   0.003348009668055  -0.000478110845533 0
force S  -0.000172398371217  -0.000148083353708  -0.000461725399141 1
force S   0.000097241924872   0.000249426665070   0.000356999709987 1
force S  -0.000095898666973  -0.000299185593414  -0.000060008055779 1
force S   0.000010127014446   0.000101357593633  -0.000099901813251 1
force S  -0.000188441680421   0.000001161275926   0.000044456930327 1
force S  -0.000056029771783   0.000028598073314   0.000039174330931 1
force S   0.000222424885001  -0.000032085326030   0.000340713163587 1
force S   0.000212632774693   0.000055550292557   0.000225127122709 1
force Na   0.000024428479697   0.000042443311909   0.000074622672956 1
force Na   0.000022110603599   0.000021558862727   0.000019433547831 1

# Energy components:
   A_diel =       -1.2662659628722590
   Eewald =    31156.3434363997694163
       EH =    37439.3806690697892918
     Eloc =   -76917.1595238248410169
      Enl =      920.3878072625147979
      Exc =     -988.0498843549414687
 Exc_core =      155.8560723589359043
       KE =     1153.2957768096496238
-------------------------------------
     Etot =    -7081.2119122420044732
       TS =        0.9803963928685135
-------------------------------------
        F =    -7082.1923086348733705

IonicMinimize: Iter:  42  F: -7082.192308634873370  |grad|_K:  1.736e-04  alpha:  1.829e+00  linmin: -3.464e-04  t[s]:  38344.43
IonicMinimize: Converged (|Delta F|<1.000000e-06 for 2 iters).

#--- Lowdin population analysis ---
# oxidation-state Ni +0.183 -0.443 -0.445 +0.183 +0.183 +0.182 -0.448 -0.456 -0.443 -0.442 +0.181 +0.180 +0.175 +0.173 -0.474 -0.439 +0.172 +0.170 -0.441 -0.454 +0.173 +0.178 -0.440 -0.463 -0.444 -0.455 +0.174 +0.181 +0.172 +0.180 -0.440 -0.468 -0.464 -0.446 +0.175 +0.183
# oxidation-state S +0.264 +0.444 +0.038 -0.253 -0.282 +0.038 +0.446 +0.264 +0.262 +0.442 +0.040 -0.112 -0.287 +0.040 +0.432 +0.278 +0.245 +0.427 +0.167 +0.038 +0.432 +0.248 +0.039 +0.176 +0.249 +0.439 +0.040 +0.051 -0.236 +0.042 +0.426 +0.277 +0.296 +0.437 -0.104 +0.039 +0.443 +0.255 +0.039 -0.282 +0.255 +0.433 +0.037 -0.362 +0.049 +0.038 +0.422 +0.228 +0.258 +0.425 +0.036 -0.028 -0.068 +0.035 +0.439 +0.252 +0.278 +0.438 +0.040 -0.273 -0.331 +0.038 +0.441 +0.273 +0.266 +0.434 +0.036 -0.289 -0.314 +0.039 +0.447 +0.255 +0.153 -0.019 +0.137 -0.481 +0.615 -0.120 +0.263 -0.133
# oxidation-state Na +0.946 +0.930


Dumping 'Na2S8@NiS2_S-PC.fillings' ... done
Dumping 'Na2S8@NiS2_S-PC.wfns' ... done
Dumping 'Na2S8@NiS2_S-PC.fluidState' ... done
Dumping 'Na2S8@NiS2_S-PC.ionpos' ... done
Dumping 'Na2S8@NiS2_S-PC.eigenvals' ... done
End date and time: Thu Oct 10 03:50:31 2024  (Duration: 0-10:39:11.15)
Done!
