
*************** JDFTx 1.7.0  ***************

Start date and time: Sat Oct 12 07:05:59 2024
Executable jdftx_gpu with command-line: -i /home/akim2/JDFTx/Na2S@NiS2_S-PC/Na2S@NiS2_S-PC.in -o /home/akim2/JDFTx/Na2S@NiS2_S-PC/Na2S@NiS2_S-PC.out
Running on hosts (process indices):  exp-5-60 (0)
Divided in process groups (process indices):  0 (0)
gpuInit: Found compatible cuda device 0 'Tesla V100-SXM2-32GB'
gpuInit: Selected device 0
Resource initialization completed at t[s]:      0.67
Run totals: 1 processes, 1 threads, 1 GPUs


Input parsed successfully to the following command list (including defaults):

basis kpoint-dependent
coords-type Cartesian
core-overlap-check vector
coulomb-interaction Slab 001
coulomb-truncation-embed 0 0 7
davidson-band-ratio 1.1
dump End State
dump Ionic State
dump-interval Ionic 5
dump-name Na2S@NiS2_S-PC.$VAR
elec-cutoff 20 100
elec-eigen-algo Davidson
elec-ex-corr gga-PBE
elec-smearing Fermi 0.01
electronic-minimize  \
	dirUpdateScheme      FletcherReeves \
	linminMethod         DirUpdateRecommended \
	nIterations          100 \
	history              15 \
	knormThreshold       0 \
	energyDiffThreshold  1e-08 \
	nEnergyDiff          2 \
	alphaTstart          1 \
	alphaTmin            1e-10 \
	updateTestStepSize   yes \
	alphaTreduceFactor   0.1 \
	alphaTincreaseFactor 3 \
	nAlphaAdjustMax      3 \
	wolfeEnergy          0.0001 \
	wolfeGradient        0.9 \
	fdTest               no
exchange-regularization WignerSeitzTruncated
fluid LinearPCM 298.000000 1.013250
fluid-ex-corr lda-TF lda-PZ
fluid-gummel-loop 10 1.000000e-05
fluid-minimize  \
	dirUpdateScheme      PolakRibiere \
	linminMethod         DirUpdateRecommended \
	nIterations          400 \
	history              15 \
	knormThreshold       1e-11 \
	energyDiffThreshold  0 \
	nEnergyDiff          2 \
	alphaTstart          1 \
	alphaTmin            1e-10 \
	updateTestStepSize   yes \
	alphaTreduceFactor   0.1 \
	alphaTincreaseFactor 3 \
	nAlphaAdjustMax      6 \
	wolfeEnergy          0.0001 \
	wolfeGradient        0.9 \
	fdTest               no
fluid-solvent PC 11.6429 ScalarEOS \
	epsBulk 64 \
	pMol 2.95 \
	epsInf 2.02 \
	Pvap 1.53277e-13 \
	sigmaBulk 2.88e-05 \
	Rvdw 0 \
	Res 0 \
	tauNuc 343133
forces-output-coords Positions
initial-state Na2S@NiS2_S-PC.$VAR
ion Ni  32.205931395299984  -0.235970585100000   0.378248356800000 0
ion Ni   5.388300532800000  -0.235970585100000   5.741774529299998 0
ion Ni  32.205931395299984  -5.599496757599998   5.741774529299998 0
ion Ni   5.388300532800000  -5.599496757599998   0.378248356800000 0
ion Ni  32.205931395299984 -10.963022930099999   0.378248356800000 0
ion Ni  32.205931395299984 -21.690075275099989   0.378248356800000 0
ion Ni   5.388300532800000 -21.690075275099989   5.741774529299998 0
ion Ni   5.388300532800000 -10.963022930099999   5.741774529299998 0
ion Ni  32.205931395299984 -16.326549102599994   5.741774529299998 0
ion Ni  32.205931395299984 -27.053601447599998   5.741774529299998 0
ion Ni   5.388300532800000 -27.053601447599998   0.378248356800000 0
ion Ni   5.388300532800000 -16.326549102599994   0.378248356800000 0
ion Ni  10.751826705299996  -0.235970585100000   0.378248356800000 0
ion Ni  21.478879050299994  -0.235970585100000   0.378248356800000 0
ion Ni  21.478879050299994  -5.599496757599998   5.741774529299998 0
ion Ni  10.751826705299996  -5.599496757599998   5.741774529299998 0
ion Ni  16.115352877799992  -5.599496757599998   0.378248356800000 0
ion Ni  26.842405222799997  -5.599496757599998   0.378248356800000 0
ion Ni  26.842405222799997  -0.235970585100000   5.741774529299998 0
ion Ni  16.115352877799992  -0.235970585100000   5.741774529299998 0
ion Ni  10.751826705299996 -10.963022930099999   0.378248356800000 0
ion Ni  21.478879050299994 -21.690075275099989   0.378248356800000 0
ion Ni  26.842405222799997 -21.690075275099989   5.741774529299998 0
ion Ni  16.115352877799992 -10.963022930099999   5.741774529299998 0
ion Ni  21.478879050299994 -16.326549102599994   5.741774529299998 0
ion Ni  10.751826705299996 -27.053601447599998   5.741774529299998 0
ion Ni  16.115352877799992 -27.053601447599998   0.378248356800000 0
ion Ni  26.842405222799997 -16.326549102599994   0.378248356800000 0
ion Ni  10.751826705299996 -21.690075275099989   0.378248356800000 0
ion Ni  21.478879050299994 -10.963022930099999   0.378248356800000 0
ion Ni  26.842405222799997 -10.963022930099999   5.741774529299998 0
ion Ni  16.115352877799992 -21.690075275099989   5.741774529299998 0
ion Ni  21.478879050299994 -27.053601447599998   5.741774529299998 0
ion Ni  10.751826705299996 -16.326549102599994   5.741774529299998 0
ion Ni  16.115352877799992 -16.326549102599994   0.378248356800000 0
ion Ni  26.842405222799997 -27.053601447599998   0.378248356800000 0
ion S   4.257013668300000  -4.468209893099999   6.873042496499997 0
ion S  27.973692087299998 -28.184888312099993   4.610506562099999 0
ion S   1.156061224800000 -28.184888312099993   1.509516324000000 0
ion S   9.620539840799996  -4.468209893099999   9.974032734599996 0
ion S  27.973692087299998  -9.831736065599996   9.974032734599996 0
ion S   4.257013668300000  -1.367257449600000   1.509516324000000 0
ion S   9.620539840799996  -1.367257449600000   4.610506562099999 0
ion S   1.156061224800000  -9.831736065599996   6.873042496499997 0
ion S   4.257013668300000 -15.195262238099994   6.873042496499997 0
ion S  27.973692087299998 -17.457835967099999   4.610506562099999 0
ion S   1.156061224800000 -17.457835967099999   1.509516324000000 0
ion S   9.620539840799996 -15.195262238099994   9.974032734599996 0
ion S  27.973692087299998 -20.558788410599991   9.974032734599996 0
ion S   4.257013668300000 -22.821362139599991   1.509516324000000 0
ion S   9.620539840799996 -22.821362139599991   4.610506562099999 0
ion S   1.156061224800000 -20.558788410599991   6.873042496499997 0
ion S  14.984066013300000  -4.468228790400000   6.873061393799998 0
ion S  17.246639742299990 -28.184869414799991   4.610487664799998 0
ion S  17.246639742299990  -9.831754962899996   9.974013837299996 0
ion S  14.984066013300000  -1.367238552300000   1.509535221300000 0
ion S  20.347592185800000  -1.367238552300000   4.610487664799998 0
ion S  22.610165914799992  -9.831754962899996   6.873061393799998 0
ion S  22.610165914799992 -28.184869414799991   1.509535221300000 0
ion S  20.347592185800000  -4.468228790400000   9.974013837299996 0
ion S   4.257013668300000 -25.922314583100000   6.873042496499997 0
ion S  27.973692087299998  -6.730783622100000   4.610506562099999 0
ion S   1.156061224800000  -6.730783622100000   1.509516324000000 0
ion S   9.620539840799996 -25.922314583100000   9.974032734599996 0
ion S  27.973692087299998 -31.285840755599999   9.974032734599996 0
ion S   4.257013668300000 -12.094309794599999   1.509516324000000 0
ion S   9.620539840799996 -12.094309794599999   4.610506562099999 0
ion S   1.156061224800000 -31.285840755599999   6.873042496499997 0
ion S  25.711118358299998  -4.468228790400000   6.873061393799998 0
ion S   6.519587397299998 -28.184869414799991   4.610487664799998 0
ion S   6.519587397299998  -9.831754962899996   9.974013837299996 0
ion S  25.711118358299998  -1.367238552300000   1.509535221300000 0
ion S  31.074644530799993  -1.367238552300000   4.610487664799998 0
ion S  11.883113569799995  -9.831754962899996   6.873061393799998 0
ion S  11.883113569799995 -28.184869414799991   1.509535221300000 0
ion S  31.074644530799993  -4.468228790400000   9.974013837299996 0
ion S  14.984066013300000 -15.195262238099994   6.873042496499997 0
ion S  17.246639742299990 -17.457835967099999   4.610506562099999 0
ion S  22.610165914799992 -17.457835967099999   1.509516324000000 0
ion S  20.347592185800000 -15.195262238099994   9.974032734599996 0
ion S  17.246639742299990 -20.558788410599991   9.974032734599996 0
ion S  14.984066013300000 -22.821362139599991   1.509516324000000 0
ion S  20.347592185800000 -22.821362139599991   4.610506562099999 0
ion S  22.610165914799992 -20.558788410599991   6.873042496499997 0
ion S  14.984066013300000 -25.922314583100000   6.873042496499997 0
ion S  17.246639742299990  -6.730783622100000   4.610506562099999 0
ion S  22.610165914799992  -6.730783622100000   1.509516324000000 0
ion S  20.347592185800000 -25.922314583100000   9.974032734599996 0
ion S  17.246639742299990 -31.285840755599999   9.974032734599996 0
ion S  14.984066013300000 -12.094309794599999   1.509516324000000 0
ion S  20.347592185800000 -12.094309794599999   4.610506562099999 0
ion S  22.610165914799992 -31.285840755599999   6.873042496499997 0
ion S  25.711118358299998 -15.195262238099994   6.873042496499997 0
ion S   6.519587397299998 -17.457835967099999   4.610506562099999 0
ion S  11.883113569799995 -17.457835967099999   1.509516324000000 0
ion S  31.074644530799993 -15.195262238099994   9.974032734599996 0
ion S   6.519587397299998 -20.558788410599991   9.974032734599996 0
ion S  25.711118358299998 -22.821362139599991   1.509516324000000 0
ion S  31.074644530799993 -22.821362139599991   4.610506562099999 0
ion S  11.883113569799995 -20.558788410599991   6.873042496499997 0
ion S  25.711118358299998 -25.922314583100000   6.873042496499997 0
ion S   6.519587397299998  -6.730783622100000   4.610506562099999 0
ion S  11.883113569799995  -6.730783622100000   1.509516324000000 0
ion S  31.074644530799993 -25.922314583100000   9.974032734599996 0
ion S   6.519587397299998 -31.285840755599999   9.974032734599996 0
ion S  25.711118358299998 -12.094309794599999   1.509516324000000 0
ion S  31.074644530799993 -12.094309794599999   4.610506562099999 0
ion S  11.883113569799995 -31.285840755599999   6.873042496499997 0
ion S  15.983980407035165 -23.707406565677630  16.175676855850703 1
ion Na   6.401312292491253  -6.570944621859404  18.692834120321304 1
ion Na  32.025327625995516 -10.768881381894261  17.141134026903604 1
ion-species GBRV/$ID_pbe.uspp
ion-width Ecut
ionic-minimize  \
	dirUpdateScheme      FletcherReeves \
	linminMethod         DirUpdateRecommended \
	nIterations          200 \
	history              15 \
	knormThreshold       0.0001 \
	energyDiffThreshold  1e-06 \
	nEnergyDiff          2 \
	alphaTstart          1 \
	alphaTmin            1e-10 \
	updateTestStepSize   yes \
	alphaTreduceFactor   0.1 \
	alphaTincreaseFactor 3 \
	nAlphaAdjustMax      3 \
	wolfeEnergy          0.0001 \
	wolfeGradient        0.9 \
	fdTest               no
kpoint   0.000000000000   0.000000000000   0.000000000000  1.00000000000000
kpoint-folding 1 1 1 
latt-move-scale 1 1 1
latt-scale 1 1 1 
lattice Triclinic 32.1811 32.1811 37.7946 90 90 90
lattice-minimize  \
	dirUpdateScheme      L-BFGS \
	linminMethod         DirUpdateRecommended \
	nIterations          0 \
	history              15 \
	knormThreshold       0 \
	energyDiffThreshold  1e-06 \
	nEnergyDiff          2 \
	alphaTstart          1 \
	alphaTmin            1e-10 \
	updateTestStepSize   yes \
	alphaTreduceFactor   0.1 \
	alphaTincreaseFactor 3 \
	nAlphaAdjustMax      3 \
	wolfeEnergy          0.0001 \
	wolfeGradient        0.9 \
	fdTest               no
lcao-params -1 1e-06 0.01
pcm-variant GLSSA13
spintype no-spin
subspace-rotation-factor 1 yes
symmetries automatic
symmetry-threshold 0.0001



---------- Setting up symmetries ----------

Found 16 point-group symmetries of the bravais lattice
Found 1 space-group symmetries with basis
Applied RMS atom displacement 0 bohrs to make symmetries exact.

---------- Initializing the Grid ----------
R = 
[      32.1811            0            0  ]
[            0      32.1811            0  ]
[            0            0      37.7946  ]
unit cell volume = 39140.9
G =
[   0.195245          0          0  ]
[          0   0.195245          0  ]
[          0          0   0.166246  ]
Minimum fftbox size, Smin = [  148  148  172  ]
Chosen fftbox size, S = [  150  150  180  ]

---------- Initializing tighter grid for wavefunction operations ----------
R = 
[      32.1811            0            0  ]
[            0      32.1811            0  ]
[            0            0      37.7946  ]
unit cell volume = 39140.9
G =
[   0.195245          0          0  ]
[          0   0.195245          0  ]
[          0          0   0.166246  ]
Minimum fftbox size, Smin = [  132  132  156  ]
Chosen fftbox size, S = [  140  140  160  ]

---------- Exchange Correlation functional ----------
Initalized PBE GGA exchange.
Initalized PBE GGA correlation.

---------- Setting up pseudopotentials ----------
Width of ionic core gaussian charges (only for fluid interactions / plotting) set to 0.397384

Reading pseudopotential file '/home/akim2/jdftx_install/build/pseudopotentials/GBRV/ni_pbe.uspp':
  Title: Ni.  Created by USPP 7.3.6 on 1-4-15
  Reference state energy: -170.398381.  18 valence electrons in orbitals:
    |300>  occupation: 2  eigenvalue: -4.804705
    |310>  occupation: 6  eigenvalue: -3.347751
    |320>  occupation: 8  eigenvalue: -1.042415
    |400>  occupation: 0  eigenvalue: -0.795539
    |410>  occupation: 0  eigenvalue: -0.551375
  lMax: 2  lLocal: 3  QijEcut: 6.5
  6 projectors sampled on a log grid with 611 points:
    l: 0  eig: -4.804708  rCut: 1.44
    l: 0  eig: -0.795541  rCut: 1.44
    l: 1  eig: -3.347753  rCut: 1.55
    l: 1  eig: 0.500000  rCut: 1.55
    l: 2  eig: -1.042418  rCut: 1.5
    l: 2  eig: -0.450000  rCut: 1.5
  Partial core density with radius 0.65
  Transforming core density to a uniform radial grid of dG=0.02 with 1283 points.
  Transforming local potential to a uniform radial grid of dG=0.02 with 1283 points.
  Transforming nonlocal projectors to a uniform radial grid of dG=0.02 with 432 points.
  Transforming density augmentations to a uniform radial grid of dG=0.02 with 1283 points.
  Transforming atomic orbitals to a uniform radial grid of dG=0.02 with 432 points.
  Core radius for overlap checks: 1.55 bohrs.

Reading pseudopotential file '/home/akim2/jdftx_install/build/pseudopotentials/GBRV/s_pbe.uspp':
  Title: S.  Created by USPP 7.3.6 on 1-4-15
  Reference state energy: -11.898476.  6 valence electrons in orbitals:
    |300>  occupation: 2  eigenvalue: -0.634167
    |310>  occupation: 4  eigenvalue: -0.257568
  lMax: 2  lLocal: 3  QijEcut: 6
  6 projectors sampled on a log grid with 635 points:
    l: 0  eig: -0.634161  rCut: 1.5
    l: 0  eig: 1.500000  rCut: 1.5
    l: 1  eig: -0.257567  rCut: 1.5
    l: 1  eig: 1.500000  rCut: 1.5
    l: 2  eig: -1.000000  rCut: 1.5
    l: 2  eig: 1.500000  rCut: 1.5
  Partial core density with radius 1.15
  Transforming core density to a uniform radial grid of dG=0.02 with 1283 points.
  Transforming local potential to a uniform radial grid of dG=0.02 with 1283 points.
  Transforming nonlocal projectors to a uniform radial grid of dG=0.02 with 432 points.
  Transforming density augmentations to a uniform radial grid of dG=0.02 with 1283 points.
  Transforming atomic orbitals to a uniform radial grid of dG=0.02 with 432 points.
  Core radius for overlap checks: 1.50 bohrs.

Reading pseudopotential file '/home/akim2/jdftx_install/build/pseudopotentials/GBRV/na_pbe.uspp':
  Title: Na.  Created by USPP 7.3.6 on 23-9-15
  Reference state energy: -47.625620.  9 valence electrons in orbitals:
    |200>  occupation: 2  eigenvalue: -2.085638
    |210>  occupation: 6  eigenvalue: -1.053708
    |300>  occupation: 1  eigenvalue: -0.100838
  lMax: 2  lLocal: 0  QijEcut: 6
  5 projectors sampled on a log grid with 657 points:
    l: 0  eig: -2.085640  rCut: 1.37
    l: 0  eig: -0.100839  rCut: 1.37
    l: 1  eig: -1.053708  rCut: 1.47
    l: 1  eig: 0.500000  rCut: 1.47
    l: 2  eig: 0.750000  rCut: 2
  Transforming local potential to a uniform radial grid of dG=0.02 with 1283 points.
  Transforming nonlocal projectors to a uniform radial grid of dG=0.02 with 432 points.
  Transforming density augmentations to a uniform radial grid of dG=0.02 with 1283 points.
  Transforming atomic orbitals to a uniform radial grid of dG=0.02 with 432 points.
  Core radius for overlap checks: 2.00 bohrs.

Initialized 3 species with 111 total atoms.

Folded 1 k-points by 1x1x1 to 1 k-points.

---------- Setting up k-points, bands, fillings ----------
No reducable k-points. 
Computing the number of bands and number of electrons
Reading initial fillings from file Na2S@NiS2_S-PC.fillings.
nElectrons: 1104.000000   nBands: 770   nStates: 1

----- Setting up reduced wavefunction bases (one per k-point) -----
average nbasis = 167141.000 , ideal nbasis = 167213.066

---------- Setting up coulomb interaction ----------
Fluid mode embedding: using embedded box, but periodic Coulomb kernel.
(Fluid response is responsible for (approximate) separation between periodic images.)
Setting up double-sized grid for truncated Coulomb potentials:
R = 
[      32.1811            0            0  ]
[            0      32.1811            0  ]
[            0            0      75.5892  ]
unit cell volume = 78281.9
G =
[   0.195245          0          0  ]
[          0   0.195245          0  ]
[          0          0  0.0831228  ]
Chosen fftbox size, S = [  150  150  360  ]
Integer grid location selected as the embedding center:
   Grid: [  0  0  33  ]
   Lattice: [  0  0  0.185212  ]
   Cartesian: [  0  0  7  ]
Constructing Wigner-Seitz cell: 6 faces (6 quadrilaterals, 0 hexagons)
Range-separation parameter for embedded mesh potentials due to point charges: 0.584339 bohrs.

---------- Setting up ewald sum ----------
Optimum gaussian width for ewald sums = 7.784726 bohr.
Real space sum over 405 unit cells with max indices [  4  4  2  ]
Reciprocal space sum over 9537 terms with max indices [  8  8  16  ]

---------- Allocating electronic variables ----------
Initializing wave functions:  reading from 'Na2S@NiS2_S-PC.wfns'
----- createFluidSolver() ----- (Fluid-side solver setup)
   Initializing fluid molecule 'PC'
     Net charge: 0   dipole magnitude: 0
     Initializing spherical shell mfKernel with radius 0 Bohr
     deltaS corrections:

Correction to mu due to finite nuclear width = -0.0139929
   Cavity determined by nc: 0.00098 and sigma: 0.6
   Effective cavity tension: 9.53e-06 Eh/bohr^2 to account for cavitation and dispersion.
Reading fluid state from 'Na2S@NiS2_S-PC.fluidState'


---- Citations for features of the code used in this run ----

   Software package:
      R. Sundararaman, K. Letchworth-Weaver, K.A. Schwarz, D. Gunceler, Y. Ozhabes and T.A. Arias, 'JDFTx: software for joint density-functional theory', SoftwareX 6, 278 (2017)

   gga-PBE exchange-correlation functional:
      J.P. Perdew, K. Burke and M. Ernzerhof, Phys. Rev. Lett. 77, 3865 (1996)

   Pseudopotentials:
      KF Garrity, JW Bennett, KM Rabe and D Vanderbilt, Comput. Mater. Sci. 81, 446 (2014)

   Truncated Coulomb potentials:
      R. Sundararaman and T.A. Arias, Phys. Rev. B 87, 165122 (2013)

   Linear/nonlinear dielectric/ionic fluid model with effective cavity tension:
      D. Gunceler, K. Letchworth-Weaver, R. Sundararaman, K.A. Schwarz and T.A. Arias, Modelling Simul. Mater. Sci. Eng. 21, 074005 (2013)

   Total energy minimization with Auxiliary Hamiltonian:
      C. Freysoldt, S. Boeck, and J. Neugebauer, Phys. Rev. B 79, 241103(R) (2009)

This list may not be complete. Please suggest additional citations or
report any other bugs at https://github.com/shankar1729/jdftx/issues

Initialization completed successfully at t[s]:     10.87


-------- Electronic minimization -----------
	Linear fluid (dielectric constant: 64) occupying 0.782103 of unit cell:	Completed after 13 iterations at t[s]:     12.75
	FillingsUpdate:  mu: -0.026787008  nElectrons: 1104.000000
ElecMinimize: Iter:   0  F: -7017.557736826245673  |grad|_K:  6.604e-06  alpha:  1.000e+00
	Linear fluid (dielectric constant: 64) occupying 0.782087 of unit cell:	Completed after 41 iterations at t[s]:     21.71
	Linear fluid (dielectric constant: 64) occupying 0.782103 of unit cell:	Completed after 41 iterations at t[s]:     25.19
	FillingsUpdate:  mu: -0.026840753  nElectrons: 1104.000000
	SubspaceRotationAdjust: set factor to 0.538
ElecMinimize: Iter:   1  F: -7017.557878189858457  |grad|_K:  8.730e-07  alpha:  2.478e-02  linmin: -1.326e-03  t[s]:     29.42
	Linear fluid (dielectric constant: 64) occupying 0.782103 of unit cell:	Completed after 4 iterations at t[s]:     33.03
	Linear fluid (dielectric constant: 64) occupying 0.782103 of unit cell:	Completed after 3 iterations at t[s]:     35.92
	FillingsUpdate:  mu: -0.026839021  nElectrons: 1104.000000
	SubspaceRotationAdjust: set factor to 0.677
ElecMinimize: Iter:   2  F: -7017.557881404521140  |grad|_K:  2.163e-07  alpha:  3.247e-02  linmin: -1.052e-03  t[s]:     40.12
	Linear fluid (dielectric constant: 64) occupying 0.782103 of unit cell:	Completed after 0 iterations at t[s]:     43.67
ElecMinimize: 	Predicted alpha/alphaT>3.000000, increasing alphaT to 9.740997e-02.
	Linear fluid (dielectric constant: 64) occupying 0.782103 of unit cell:	Completed after 3 iterations at t[s]:     46.54
	Linear fluid (dielectric constant: 64) occupying 0.782103 of unit cell:	Completed after 0 iterations at t[s]:     49.38
	FillingsUpdate:  mu: -0.026841374  nElectrons: 1104.000000
	SubspaceRotationAdjust: set factor to 0.439
ElecMinimize: Iter:   3  F: -7017.557882137839442  |grad|_K:  1.637e-07  alpha:  1.103e-01  linmin: -4.639e-03  t[s]:     53.55
	Linear fluid (dielectric constant: 64) occupying 0.782103 of unit cell:	Completed after 4 iterations at t[s]:     57.19
	Linear fluid (dielectric constant: 64) occupying 0.782103 of unit cell:	Completed after 0 iterations at t[s]:     60.04
	FillingsUpdate:  mu: -0.026841862  nElectrons: 1104.000000
	SubspaceRotationAdjust: set factor to 0.236
ElecMinimize: Iter:   4  F: -7017.557882425328899  |grad|_K:  1.141e-07  alpha:  6.541e-02  linmin:  3.894e-03  t[s]:     64.19
	Linear fluid (dielectric constant: 64) occupying 0.782103 of unit cell:	Completed after 0 iterations at t[s]:     67.75
ElecMinimize: 	Predicted alpha/alphaT>3.000000, increasing alphaT to 1.962341e-01.
	Linear fluid (dielectric constant: 64) occupying 0.782103 of unit cell:	Completed after 3 iterations at t[s]:     70.60
	Linear fluid (dielectric constant: 64) occupying 0.782103 of unit cell:	Completed after 1 iterations at t[s]:     73.47
ElecMinimize: 	Step increased F by 7.581912e-08, reducing alpha to 5.273926e-03.
	Linear fluid (dielectric constant: 64) occupying 0.782103 of unit cell:	Completed after 0 iterations at t[s]:     80.16
ElecMinimize: 	Step increased F by 2.953675e-08, reducing alpha to 5.273926e-04.
	Linear fluid (dielectric constant: 64) occupying 0.782103 of unit cell:	Completed after 0 iterations at t[s]:     86.82
ElecMinimize: 	Step increased F by 2.565503e-08, reducing alpha to 5.273926e-05.
ElecMinimize: 	Step failed to reduce F after 3 attempts. Quitting step.
ElecMinimize: 	Undoing step.
	Linear fluid (dielectric constant: 64) occupying 0.782103 of unit cell:	Completed after 0 iterations at t[s]:     93.39
ElecMinimize: 	Step failed: resetting search direction.
	FillingsUpdate:  mu: -0.026840277  nElectrons: 1104.000000
	SubspaceRotationAdjust: set factor to 0.12
	SubspaceRotationAdjust: resetting CG because factor has changed by 0.120458
	Linear fluid (dielectric constant: 64) occupying 0.782103 of unit cell:	Completed after 0 iterations at t[s]:     98.65
ElecMinimize: 	State modified externally: resetting search direction.
ElecMinimize: Iter:   5  F: -7017.557882399674781  |grad|_K:  6.498e-08  alpha:  5.274e-05
	Linear fluid (dielectric constant: 64) occupying 0.782103 of unit cell:	Completed after 0 iterations at t[s]:    106.33
ElecMinimize: 	Predicted alpha/alphaT>3.000000, increasing alphaT to 1.962341e-01.
	Linear fluid (dielectric constant: 64) occupying 0.782103 of unit cell:	Completed after 2 iterations at t[s]:    109.19
	Linear fluid (dielectric constant: 64) occupying 0.782103 of unit cell:	Completed after 0 iterations at t[s]:    112.04
ElecMinimize: 	Step increased F by 9.594532e-08, reducing alpha to 5.313699e-03.
	Linear fluid (dielectric constant: 64) occupying 0.782103 of unit cell:	Completed after 0 iterations at t[s]:    118.71
ElecMinimize: 	Step increased F by 1.103563e-07, reducing alpha to 5.313699e-04.
	Linear fluid (dielectric constant: 64) occupying 0.782103 of unit cell:	Completed after 0 iterations at t[s]:    125.41
ElecMinimize: 	Step increased F by 1.084818e-07, reducing alpha to 5.313699e-05.
ElecMinimize: 	Step failed to reduce F after 3 attempts. Quitting step.
ElecMinimize: 	Undoing step.
	Linear fluid (dielectric constant: 64) occupying 0.782103 of unit cell:	Completed after 0 iterations at t[s]:    132.08
ElecMinimize: 	Step failed along negative gradient direction.
ElecMinimize: Probably at roundoff error limit. (Stopping)
Setting wave functions to eigenvectors of Hamiltonian

# Ionic positions in cartesian coordinates:
ion Ni  32.205931395299984  -0.235970585100000   0.378248356800000 0
ion Ni   5.388300532800000  -0.235970585100000   5.741774529299998 0
ion Ni  32.205931395299984  -5.599496757599998   5.741774529299998 0
ion Ni   5.388300532800000  -5.599496757599998   0.378248356800000 0
ion Ni  32.205931395299984 -10.963022930099999   0.378248356800000 0
ion Ni  32.205931395299984 -21.690075275099989   0.378248356800000 0
ion Ni   5.388300532800000 -21.690075275099989   5.741774529299998 0
ion Ni   5.388300532800000 -10.963022930099999   5.741774529299998 0
ion Ni  32.205931395299984 -16.326549102599994   5.741774529299998 0
ion Ni  32.205931395299984 -27.053601447599998   5.741774529299998 0
ion Ni   5.388300532800000 -27.053601447599998   0.378248356800000 0
ion Ni   5.388300532800000 -16.326549102599994   0.378248356800000 0
ion Ni  10.751826705299996  -0.235970585100000   0.378248356800000 0
ion Ni  21.478879050299994  -0.235970585100000   0.378248356800000 0
ion Ni  21.478879050299994  -5.599496757599998   5.741774529299998 0
ion Ni  10.751826705299996  -5.599496757599998   5.741774529299998 0
ion Ni  16.115352877799992  -5.599496757599998   0.378248356800000 0
ion Ni  26.842405222799997  -5.599496757599998   0.378248356800000 0
ion Ni  26.842405222799997  -0.235970585100000   5.741774529299998 0
ion Ni  16.115352877799992  -0.235970585100000   5.741774529299998 0
ion Ni  10.751826705299996 -10.963022930099999   0.378248356800000 0
ion Ni  21.478879050299994 -21.690075275099989   0.378248356800000 0
ion Ni  26.842405222799997 -21.690075275099989   5.741774529299998 0
ion Ni  16.115352877799992 -10.963022930099999   5.741774529299998 0
ion Ni  21.478879050299994 -16.326549102599994   5.741774529299998 0
ion Ni  10.751826705299996 -27.053601447599998   5.741774529299998 0
ion Ni  16.115352877799992 -27.053601447599998   0.378248356800000 0
ion Ni  26.842405222799997 -16.326549102599994   0.378248356800000 0
ion Ni  10.751826705299996 -21.690075275099989   0.378248356800000 0
ion Ni  21.478879050299994 -10.963022930099999   0.378248356800000 0
ion Ni  26.842405222799997 -10.963022930099999   5.741774529299998 0
ion Ni  16.115352877799992 -21.690075275099989   5.741774529299998 0
ion Ni  21.478879050299994 -27.053601447599998   5.741774529299998 0
ion Ni  10.751826705299996 -16.326549102599994   5.741774529299998 0
ion Ni  16.115352877799992 -16.326549102599994   0.378248356800000 0
ion Ni  26.842405222799997 -27.053601447599998   0.378248356800000 0
ion S   4.257013668300000  -4.468209893099999   6.873042496499997 0
ion S  27.973692087299998 -28.184888312099993   4.610506562099999 0
ion S   1.156061224800000 -28.184888312099993   1.509516324000000 0
ion S   9.620539840799996  -4.468209893099999   9.974032734599996 0
ion S  27.973692087299998  -9.831736065599996   9.974032734599996 0
ion S   4.257013668300000  -1.367257449600000   1.509516324000000 0
ion S   9.620539840799996  -1.367257449600000   4.610506562099999 0
ion S   1.156061224800000  -9.831736065599996   6.873042496499997 0
ion S   4.257013668300000 -15.195262238099994   6.873042496499997 0
ion S  27.973692087299998 -17.457835967099999   4.610506562099999 0
ion S   1.156061224800000 -17.457835967099999   1.509516324000000 0
ion S   9.620539840799996 -15.195262238099994   9.974032734599996 0
ion S  27.973692087299998 -20.558788410599991   9.974032734599996 0
ion S   4.257013668300000 -22.821362139599991   1.509516324000000 0
ion S   9.620539840799996 -22.821362139599991   4.610506562099999 0
ion S   1.156061224800000 -20.558788410599991   6.873042496499997 0
ion S  14.984066013300000  -4.468228790400000   6.873061393799998 0
ion S  17.246639742299990 -28.184869414799991   4.610487664799998 0
ion S  17.246639742299990  -9.831754962899996   9.974013837299996 0
ion S  14.984066013300000  -1.367238552300000   1.509535221300000 0
ion S  20.347592185800000  -1.367238552300000   4.610487664799998 0
ion S  22.610165914799992  -9.831754962899996   6.873061393799998 0
ion S  22.610165914799992 -28.184869414799991   1.509535221300000 0
ion S  20.347592185800000  -4.468228790400000   9.974013837299996 0
ion S   4.257013668300000 -25.922314583100000   6.873042496499997 0
ion S  27.973692087299998  -6.730783622100000   4.610506562099999 0
ion S   1.156061224800000  -6.730783622100000   1.509516324000000 0
ion S   9.620539840799996 -25.922314583100000   9.974032734599996 0
ion S  27.973692087299998 -31.285840755599999   9.974032734599996 0
ion S   4.257013668300000 -12.094309794599999   1.509516324000000 0
ion S   9.620539840799996 -12.094309794599999   4.610506562099999 0
ion S   1.156061224800000 -31.285840755599999   6.873042496499997 0
ion S  25.711118358299998  -4.468228790400000   6.873061393799998 0
ion S   6.519587397299998 -28.184869414799991   4.610487664799998 0
ion S   6.519587397299998  -9.831754962899996   9.974013837299996 0
ion S  25.711118358299998  -1.367238552300000   1.509535221300000 0
ion S  31.074644530799993  -1.367238552300000   4.610487664799998 0
ion S  11.883113569799995  -9.831754962899996   6.873061393799998 0
ion S  11.883113569799995 -28.184869414799991   1.509535221300000 0
ion S  31.074644530799993  -4.468228790400000   9.974013837299996 0
ion S  14.984066013300000 -15.195262238099994   6.873042496499997 0
ion S  17.246639742299990 -17.457835967099999   4.610506562099999 0
ion S  22.610165914799992 -17.457835967099999   1.509516324000000 0
ion S  20.347592185800000 -15.195262238099994   9.974032734599996 0
ion S  17.246639742299990 -20.558788410599991   9.974032734599996 0
ion S  14.984066013300000 -22.821362139599991   1.509516324000000 0
ion S  20.347592185800000 -22.821362139599991   4.610506562099999 0
ion S  22.610165914799992 -20.558788410599991   6.873042496499997 0
ion S  14.984066013300000 -25.922314583100000   6.873042496499997 0
ion S  17.246639742299990  -6.730783622100000   4.610506562099999 0
ion S  22.610165914799992  -6.730783622100000   1.509516324000000 0
ion S  20.347592185800000 -25.922314583100000   9.974032734599996 0
ion S  17.246639742299990 -31.285840755599999   9.974032734599996 0
ion S  14.984066013300000 -12.094309794599999   1.509516324000000 0
ion S  20.347592185800000 -12.094309794599999   4.610506562099999 0
ion S  22.610165914799992 -31.285840755599999   6.873042496499997 0
ion S  25.711118358299998 -15.195262238099994   6.873042496499997 0
ion S   6.519587397299998 -17.457835967099999   4.610506562099999 0
ion S  11.883113569799995 -17.457835967099999   1.509516324000000 0
ion S  31.074644530799993 -15.195262238099994   9.974032734599996 0
ion S   6.519587397299998 -20.558788410599991   9.974032734599996 0
ion S  25.711118358299998 -22.821362139599991   1.509516324000000 0
ion S  31.074644530799993 -22.821362139599991   4.610506562099999 0
ion S  11.883113569799995 -20.558788410599991   6.873042496499997 0
ion S  25.711118358299998 -25.922314583100000   6.873042496499997 0
ion S   6.519587397299998  -6.730783622100000   4.610506562099999 0
ion S  11.883113569799995  -6.730783622100000   1.509516324000000 0
ion S  31.074644530799993 -25.922314583100000   9.974032734599996 0
ion S   6.519587397299998 -31.285840755599999   9.974032734599996 0
ion S  25.711118358299998 -12.094309794599999   1.509516324000000 0
ion S  31.074644530799993 -12.094309794599999   4.610506562099999 0
ion S  11.883113569799995 -31.285840755599999   6.873042496499997 0
ion S  15.983980407035165 -23.707406565677630  16.175676855850703 1
ion Na   6.401312292491253  -6.570944621859404  18.692834120321304 1
ion Na  32.025327625995516 -10.768881381894261  17.141134026903604 1

# Forces in Cartesian coordinates:
force Ni   0.023490378731160   0.011792202661864   0.039336258559356 0
force Ni  -0.002220703922562  -0.001280022807022   0.006648698620888 0
force Ni   0.002832820310515  -0.001833065008554   0.006637662125467 0
force Ni  -0.022275083485794   0.011581279276481   0.039431606537514 0
force Ni   0.023505127960307   0.011590215133128   0.039446531981189 0
force Ni   0.023562363549890   0.011700908731793   0.039338474738455 0
force Ni  -0.002720376895487  -0.001905318227862   0.007437553923994 0
force Ni  -0.001581461797616  -0.001987059755975   0.006554079603722 0
force Ni   0.002851050548917  -0.001897478023754   0.006343317599492 0
force Ni   0.002423823599881  -0.001525909607054   0.006283999170799 0
force Ni  -0.022838505004869   0.011386918963587   0.040102345816635 0
force Ni  -0.022316030630295   0.011607329635854   0.039368331176540 0
force Ni   0.023643239566704   0.010059077300032   0.039559596439317 0
force Ni   0.024261990004695   0.010941610098609   0.039321149881368 0
force Ni   0.003008503984182  -0.000977387348750   0.006764800558527 0
force Ni   0.003358050352053  -0.001622191098359   0.006654842396682 0
force Ni  -0.022739992140404   0.011972060540219   0.039575234224849 0
force Ni  -0.022330120915660   0.011594046530766   0.039337518822070 0
force Ni  -0.001900726285101  -0.001920034012890   0.006550026569318 0
force Ni   0.005663419434346  -0.006422132986315   0.000256425751435 0
force Ni   0.023411591382715   0.011552682814508   0.039362994288751 0
force Ni   0.023949811148484   0.012661270800375   0.036754015114138 0
force Ni   0.000070832182544  -0.002413833460683   0.006718604446170 0
force Ni  -0.001833517717060   0.000137121621463   0.007868609382788 0
force Ni   0.005281955053439   0.002678565308858   0.003323512502623 0
force Ni  -0.155809152880772  -0.046497557148462  -0.026409208428438 0
force Ni  -0.013526414602687   0.005696558808204   0.036907688833904 0
force Ni  -0.022099125548839   0.011670887266399   0.039250586437665 0
force Ni   0.021105426467466   0.013731960849701   0.036471749707133 0
force Ni   0.023463085709572   0.011530463666398   0.039374115828556 0
force Ni  -0.001677660438325  -0.001770054846056   0.006566123518831 0
force Ni   0.011902377314057   0.120616318745010  -0.142027452523232 0
force Ni   0.007807794090507  -0.010698733432085  -0.001495117506939 0
force Ni   0.001561522039282   0.001132403923021   0.005556401311672 0
force Ni  -0.022545870312588   0.012170837449116   0.037158630601926 0
force Ni  -0.022739310578933   0.011253448778354   0.039600481223123 0
force S  -0.006460546043139   0.004280278744463  -0.005189942069793 0
force S   0.004230220117197  -0.001003057465273  -0.010654773834841 0
force S  -0.002868590408802  -0.007919682552864  -0.023529551513300 0
force S   0.003348883343348  -0.006955703721806  -0.004734690828109 0
force S  -0.003579728742883  -0.006100447647534  -0.005838589041283 0
force S   0.002948777829717  -0.007869578264174  -0.023595059189363 0
force S  -0.004798875280090   0.000072486060170  -0.012382519207941 0
force S   0.006510457452930   0.004568887211598  -0.005311257316356 0
force S  -0.006595097427432   0.004503199809046  -0.005675071589301 0
force S   0.004880219465144  -0.000812534223458  -0.010831521346637 0
force S  -0.002649089254872  -0.007890299740484  -0.023496303223762 0
force S  -0.000357825272688  -0.002812929574526  -0.008732989358535 0
force S  -0.001169332896624  -0.006017532737950  -0.005758782065096 0
force S   0.003091562380215  -0.007709483784339  -0.023532940617702 0
force S  -0.017968026552412  -0.001865758490303  -0.011102277114927 0
force S   0.006081018261994   0.004424319480438  -0.005859365105868 0
force S  -0.005816118241280   0.003424205751804  -0.006024216661655 0
force S   0.253862045518388  -0.246934689365786  -0.269508079525742 0
force S  -0.004009252994622  -0.003074407937221  -0.006353092954266 0
force S   0.002527177525188  -0.009828115488840  -0.023919504178010 0
force S  -0.004156831259555  -0.002599154856065  -0.010192187254890 0
force S   0.006153417373647   0.005298472209522  -0.006140577195488 0
force S  -0.000873857608022  -0.006588349963218  -0.022682671670872 0
force S   0.004745828121753  -0.007851812287289  -0.006125773655136 0
force S  -0.008156719325887   0.002316690505640  -0.007402204034573 0
force S   0.004612270332652  -0.001286981731214  -0.010659004589818 0
force S  -0.002618908505715  -0.007934205023146  -0.023569787094607 0
force S  -0.062750134365487  -0.007205802742832  -0.017474353887383 0
force S  -0.003447791034619  -0.006299170488440  -0.005343753142491 0
force S   0.002636780994016  -0.007857845792713  -0.023385503202138 0
force S  -0.004581765667439  -0.001446769539509  -0.010897935146855 0
force S   0.006321722117395   0.004544120963903  -0.005200045669603 0
force S  -0.006103129627942   0.004456767676006  -0.004997330572613 0
force S  -0.004171304738172  -0.001992792528688  -0.012319280695597 0
force S  -0.004362577429956  -0.005604543807751  -0.005878732569877 0
force S   0.002545628637682  -0.007796756356769  -0.023745946434701 0
force S  -0.004442242931062  -0.001224551035922  -0.010698660539140 0
force S   0.006280303026313   0.004721486730950  -0.006191441870809 0
force S  -0.011570490936351  -0.017424578301544  -0.029442827422784 0
force S   0.003502283113242  -0.006256473687031  -0.005968238641589 0
force S  -0.011047383166202   0.020098645576450  -0.024771619161467 0
force S   0.005363297208833   0.000832230418889  -0.016916771596836 0
force S  -0.002953794509898  -0.008050105499920  -0.023606452235559 0
force S   0.024887869807221   0.027651973357273  -0.014189618811442 0
force S   0.119136658895365   0.193982764476579   0.258042298902229 0
force S   0.017357970565135   0.013023423713056  -0.048246586886968 0
force S  -0.006948323910837  -0.000826248731971  -0.016947319951880 0
force S   0.030553716214333   0.006413691636666  -0.031180606999735 0
force S  -0.260224317404372   0.246936872687150   0.492999200328650 0
force S   0.004328616338086  -0.001164762581624  -0.010831926985001 0
force S  -0.002679978866241  -0.007735842941184  -0.023772559410140 0
force S   0.072600142658003  -0.031917022777685  -0.006868805241949 0
force S   0.030518242408979  -0.060362717918092  -0.011539196367531 0
force S   0.002815395422221  -0.007949715606135  -0.023647599227639 0
force S  -0.004256295804248  -0.000938446859853  -0.010536972618019 0
force S   0.006705798857969   0.003351763088718  -0.006596847923732 0
force S  -0.005857062925208   0.004663085709931  -0.006565333576129 0
force S   0.004173137541466  -0.000906819123883  -0.011027882854028 0
force S  -0.003112442555698  -0.007333336935679  -0.024374180884279 0
force S   0.003810348782363  -0.005940071612141  -0.005541167019629 0
force S  -0.008976869458505  -0.004978021974661  -0.009117837644946 0
force S   0.002566011184431  -0.008025457324329  -0.023839482765496 0
force S  -0.004075964581089  -0.001043190244975  -0.010436110338172 0
force S  -0.011543758841665   0.033271557574390  -0.037574179965383 0
force S  -0.005180411126892   0.003598244646343  -0.007107641217685 0
force S   0.004430887376604  -0.001260951323657  -0.010639421664196 0
force S  -0.002726295491142  -0.007827995944425  -0.023600253295568 0
force S   0.004139253382249  -0.006560959775238  -0.005456036068044 0
force S  -0.006489201623842  -0.008269655431447  -0.006423049925420 0
force S   0.002731297342437  -0.007928904860807  -0.023543050484886 0
force S  -0.004441129923020  -0.001254492433211  -0.010784042482826 0
force S  -0.018277844011756  -0.029505380462845  -0.033961502309030 0
force S  -0.000430047699568  -0.002509969467450  -0.005917433355120 1
force Na  -0.000377755639212  -0.000035203687593  -0.000439959177068 1
force Na  -0.000191631315393   0.000433441977453  -0.000763972606875 1

# Energy components:
   A_diel =      -35.8478977801231196
   Eewald =    29343.7327767467431840
       EH =    35654.3106517664928106
     Eloc =   -73190.5180160875752335
      Enl =      902.5017452107329063
      Exc =     -956.2877213472787616
 Exc_core =      143.4813186874634141
       KE =     1122.0709498453088599
  MuShift =        0.0000000000040629
-------------------------------------
     Etot =    -7016.5561929582363518
       TS =        1.0016893329339431
-------------------------------------
        F =    -7017.5578822911702446

IonicMinimize: Iter:   0  F: -7017.557882291170245  |grad|_K:  2.177e-03  alpha:  1.000e+00

#--- Lowdin population analysis ---
# oxidation-state Ni -0.132 -0.439 -0.439 -0.131 -0.128 -0.129 -0.434 -0.435 -0.437 -0.441 -0.130 -0.129 -0.115 -0.112 -0.442 -0.440 -0.132 -0.132 -0.442 -0.468 -0.128 -0.132 -0.436 -0.437 -0.478 -0.452 -0.172 -0.128 -0.143 -0.131 -0.439 -0.340 -0.472 -0.441 -0.129 -0.136
# oxidation-state S +0.228 +0.434 +0.031 -0.600 -0.563 +0.029 +0.438 +0.229 +0.228 +0.433 +0.030 -0.652 -0.617 +0.027 +0.371 +0.228 +0.221 +0.026 -0.602 +0.034 +0.453 +0.230 +0.054 -0.579 +0.233 +0.435 +0.030 -0.751 -0.582 +0.030 +0.436 +0.229 +0.230 +0.426 -0.571 +0.030 +0.435 +0.221 -0.051 -0.564 +0.121 +0.354 +0.026 -0.801 +5.962 -0.096 +0.341 +0.091 +5.929 +0.435 +0.030 -0.953 -0.719 +0.024 +0.436 +0.229 +0.220 +0.430 +0.020 -0.570 -0.628 +0.024 +0.436 +0.012 +0.216 +0.434 +0.030 -0.585 -0.606 +0.029 +0.435 +0.123 +5.987
# oxidation-state Na +0.943 +0.923


-------- Electronic minimization -----------
	Linear fluid (dielectric constant: 64) occupying 0.782103 of unit cell:	Completed after 32 iterations at t[s]:    144.30
	FillingsUpdate:  mu: -0.026826609  nElectrons: 1104.000000
ElecMinimize: Iter:   0  F: -7017.557854273816702  |grad|_K:  1.467e-06  alpha:  1.000e+00
	Linear fluid (dielectric constant: 64) occupying 0.782103 of unit cell:	Completed after 23 iterations at t[s]:    153.05
	Linear fluid (dielectric constant: 64) occupying 0.782103 of unit cell:	Completed after 18 iterations at t[s]:    156.18
	FillingsUpdate:  mu: -0.026831734  nElectrons: 1104.000000
	SubspaceRotationAdjust: set factor to 0.227
ElecMinimize: Iter:   1  F: -7017.557887000025403  |grad|_K:  6.359e-07  alpha:  1.183e-01  linmin:  9.064e-05  t[s]:    160.41
	Linear fluid (dielectric constant: 64) occupying 0.782103 of unit cell:	Completed after 5 iterations at t[s]:    164.04
	Linear fluid (dielectric constant: 64) occupying 0.782103 of unit cell:	Completed after 0 iterations at t[s]:    166.92
	FillingsUpdate:  mu: -0.026834756  nElectrons: 1104.000000
	SubspaceRotationAdjust: set factor to 0.261
ElecMinimize: Iter:   2  F: -7017.557892294350495  |grad|_K:  3.729e-07  alpha:  1.028e-01  linmin:  1.961e-04  t[s]:    171.09
	Linear fluid (dielectric constant: 64) occupying 0.782103 of unit cell:	Completed after 3 iterations at t[s]:    174.69
	Linear fluid (dielectric constant: 64) occupying 0.782103 of unit cell:	Completed after 0 iterations at t[s]:    177.54
	FillingsUpdate:  mu: -0.026834911  nElectrons: 1104.000000
	SubspaceRotationAdjust: set factor to 0.355
ElecMinimize: Iter:   3  F: -7017.557895220612409  |grad|_K:  1.590e-07  alpha:  1.516e-01  linmin: -1.144e-02  t[s]:    181.71
	Linear fluid (dielectric constant: 64) occupying 0.782103 of unit cell:	Completed after 3 iterations at t[s]:    185.33
	Linear fluid (dielectric constant: 64) occupying 0.782103 of unit cell:	Completed after 0 iterations at t[s]:    188.16
	FillingsUpdate:  mu: -0.026835189  nElectrons: 1104.000000
	SubspaceRotationAdjust: set factor to 0.357
ElecMinimize: Iter:   4  F: -7017.557895387161807  |grad|_K:  1.352e-07  alpha:  7.928e-02  linmin:  2.597e-04  t[s]:    192.33
	Linear fluid (dielectric constant: 64) occupying 0.782103 of unit cell:	Completed after 1 iterations at t[s]:    195.92
	Linear fluid (dielectric constant: 64) occupying 0.782103 of unit cell:	Completed after 0 iterations at t[s]:    198.74
	FillingsUpdate:  mu: -0.026835571  nElectrons: 1104.000000
	SubspaceRotationAdjust: set factor to 0.48
ElecMinimize: Iter:   5  F: -7017.557895571279914  |grad|_K:  1.239e-07  alpha:  7.934e-02  linmin: -6.641e-03  t[s]:    202.92
	Linear fluid (dielectric constant: 64) occupying 0.782103 of unit cell:	Completed after 0 iterations at t[s]:    206.47
ElecMinimize: 	Predicted alpha/alphaT>3.000000, increasing alphaT to 2.380281e-01.
	Linear fluid (dielectric constant: 64) occupying 0.782103 of unit cell:	Completed after 3 iterations at t[s]:    209.34
	Linear fluid (dielectric constant: 64) occupying 0.782103 of unit cell:	Completed after 1 iterations at t[s]:    212.21
	FillingsUpdate:  mu: -0.026836303  nElectrons: 1104.000000
	SubspaceRotationAdjust: set factor to 0.389
ElecMinimize: Iter:   6  F: -7017.557895844456652  |grad|_K:  1.448e-07  alpha:  1.183e-01  linmin:  2.423e-03  t[s]:    216.40
	Linear fluid (dielectric constant: 64) occupying 0.782103 of unit cell:	Completed after 3 iterations at t[s]:    220.01
	Linear fluid (dielectric constant: 64) occupying 0.782103 of unit cell:	Completed after 0 iterations at t[s]:    222.84
	FillingsUpdate:  mu: -0.026836098  nElectrons: 1104.000000
	SubspaceRotationAdjust: set factor to 0.397
ElecMinimize: Iter:   7  F: -7017.557895987841221  |grad|_K:  1.057e-07  alpha:  4.460e-02  linmin:  3.299e-03  t[s]:    228.36
	Linear fluid (dielectric constant: 64) occupying 0.782103 of unit cell:	Completed after 0 iterations at t[s]:    232.63
ElecMinimize: 	Predicted alpha/alphaT>3.000000, increasing alphaT to 1.337942e-01.
	Linear fluid (dielectric constant: 64) occupying 0.782103 of unit cell:	Completed after 0 iterations at t[s]:    238.93
	Linear fluid (dielectric constant: 64) occupying 0.782103 of unit cell:	Completed after 0 iterations at t[s]:    245.76
	FillingsUpdate:  mu: -0.026836095  nElectrons: 1104.000000
	SubspaceRotationAdjust: set factor to 0.496
ElecMinimize: Iter:   8  F: -7017.557896106558474  |grad|_K:  1.152e-07  alpha:  1.481e-01  linmin:  5.507e-06  t[s]:    249.92
	Linear fluid (dielectric constant: 64) occupying 0.782103 of unit cell:	Completed after 3 iterations at t[s]:    253.53
	Linear fluid (dielectric constant: 64) occupying 0.782103 of unit cell:	Completed after 0 iterations at t[s]:    258.44
ElecMinimize: 	Step increased F by 5.464335e-08, reducing alpha to 5.180616e-03.
	Linear fluid (dielectric constant: 64) occupying 0.782103 of unit cell:	Completed after 0 iterations at t[s]:    267.71
ElecMinimize: 	Step increased F by 2.229626e-08, reducing alpha to 5.180616e-04.
	Linear fluid (dielectric constant: 64) occupying 0.782103 of unit cell:	Completed after 0 iterations at t[s]:    274.36
ElecMinimize: 	Step increased F by 2.108300e-08, reducing alpha to 5.180616e-05.
ElecMinimize: 	Step failed to reduce F after 3 attempts. Quitting step.
ElecMinimize: 	Undoing step.
	Linear fluid (dielectric constant: 64) occupying 0.782103 of unit cell:	Completed after 0 iterations at t[s]:    281.01
ElecMinimize: 	Step failed: resetting search direction.
	FillingsUpdate:  mu: -0.026836858  nElectrons: 1104.000000
	SubspaceRotationAdjust: set factor to 0.497
ElecMinimize: Iter:   9  F: -7017.557896085499124  |grad|_K:  1.539e-07  alpha:  5.181e-05
	Linear fluid (dielectric constant: 64) occupying 0.782103 of unit cell:	Completed after 4 iterations at t[s]:    288.75
	Linear fluid (dielectric constant: 64) occupying 0.782103 of unit cell:	Completed after 2 iterations at t[s]:    291.64
ElecMinimize: 	Step increased F by 4.255344e-08, reducing alpha to 4.421175e-03.
	Linear fluid (dielectric constant: 64) occupying 0.782103 of unit cell:	Completed after 0 iterations at t[s]:    298.32
	FillingsUpdate:  mu: -0.026837165  nElectrons: 1104.000000
	SubspaceRotationAdjust: set factor to 0.361
ElecMinimize: Iter:  10  F: -7017.557896093984709  |grad|_K:  1.235e-07  alpha:  4.421e-03  linmin:  2.003e-03  t[s]:    302.48
	Linear fluid (dielectric constant: 64) occupying 0.782103 of unit cell:	Completed after 0 iterations at t[s]:    306.02
ElecMinimize: 	Predicted alpha/alphaT>3.000000, increasing alphaT to 1.326352e-02.
	Linear fluid (dielectric constant: 64) occupying 0.782103 of unit cell:	Completed after 0 iterations at t[s]:    308.85
ElecMinimize: 	Predicted alpha/alphaT>3.000000, increasing alphaT to 3.979057e-02.
	Linear fluid (dielectric constant: 64) occupying 0.782103 of unit cell:	Completed after 0 iterations at t[s]:    311.66
	Linear fluid (dielectric constant: 64) occupying 0.782103 of unit cell:	Completed after 0 iterations at t[s]:    314.47
	FillingsUpdate:  mu: -0.026837109  nElectrons: 1104.000000
	SubspaceRotationAdjust: set factor to 0.524
ElecMinimize: Iter:  11  F: -7017.557896215880646  |grad|_K:  1.151e-07  alpha:  6.789e-02  linmin: -1.771e-05  t[s]:    318.64
	Linear fluid (dielectric constant: 64) occupying 0.782103 of unit cell:	Completed after 3 iterations at t[s]:    322.24
	Linear fluid (dielectric constant: 64) occupying 0.782103 of unit cell:	Completed after 0 iterations at t[s]:    325.08
ElecMinimize: 	Step increased F by 1.217686e-07, reducing alpha to 1.226239e-03.
	Linear fluid (dielectric constant: 64) occupying 0.782103 of unit cell:	Completed after 0 iterations at t[s]:    331.74
ElecMinimize: 	Step increased F by 7.021754e-08, reducing alpha to 1.226239e-04.
	Linear fluid (dielectric constant: 64) occupying 0.782103 of unit cell:	Completed after 0 iterations at t[s]:    338.38
ElecMinimize: 	Step increased F by 6.519076e-08, reducing alpha to 1.226239e-05.
ElecMinimize: 	Step failed to reduce F after 3 attempts. Quitting step.
ElecMinimize: 	Undoing step.
	Linear fluid (dielectric constant: 64) occupying 0.782103 of unit cell:	Completed after 0 iterations at t[s]:    345.05
ElecMinimize: 	Step failed: resetting search direction.
	FillingsUpdate:  mu: -0.026836221  nElectrons: 1104.000000
	SubspaceRotationAdjust: set factor to 0.353
ElecMinimize: Iter:  12  F: -7017.557896150728084  |grad|_K:  2.157e-07  alpha:  1.226e-05
	Linear fluid (dielectric constant: 64) occupying 0.782103 of unit cell:	Completed after 3 iterations at t[s]:    352.75
	Linear fluid (dielectric constant: 64) occupying 0.782103 of unit cell:	Completed after 0 iterations at t[s]:    355.59
	FillingsUpdate:  mu: -0.026836407  nElectrons: 1104.000000
	SubspaceRotationAdjust: set factor to 0.169
ElecMinimize: Iter:  13  F: -7017.557896271917343  |grad|_K:  1.701e-07  alpha:  2.510e-02  linmin:  1.166e-02  t[s]:    359.74
	Linear fluid (dielectric constant: 64) occupying 0.782103 of unit cell:	Completed after 0 iterations at t[s]:    363.31
ElecMinimize: 	Predicted alpha/alphaT>3.000000, increasing alphaT to 7.531204e-02.
	Linear fluid (dielectric constant: 64) occupying 0.782103 of unit cell:	Completed after 0 iterations at t[s]:    366.10
	Linear fluid (dielectric constant: 64) occupying 0.782103 of unit cell:	Completed after 0 iterations at t[s]:    368.92
	FillingsUpdate:  mu: -0.026836400  nElectrons: 1104.000000
	SubspaceRotationAdjust: set factor to 0.189
ElecMinimize: Iter:  14  F: -7017.557896351023373  |grad|_K:  1.466e-07  alpha:  8.756e-02  linmin:  7.543e-06  t[s]:    373.09
	Linear fluid (dielectric constant: 64) occupying 0.782103 of unit cell:	Completed after 3 iterations at t[s]:    376.69
	Linear fluid (dielectric constant: 64) occupying 0.782103 of unit cell:	Completed after 0 iterations at t[s]:    379.54
ElecMinimize: 	Step increased F by 1.421731e-07, reducing alpha to 2.630082e-03.
	Linear fluid (dielectric constant: 64) occupying 0.782103 of unit cell:	Completed after 0 iterations at t[s]:    386.20
ElecMinimize: 	Step increased F by 8.064490e-08, reducing alpha to 2.630082e-04.
	Linear fluid (dielectric constant: 64) occupying 0.782103 of unit cell:	Completed after 0 iterations at t[s]:    392.86
ElecMinimize: 	Step increased F by 7.473955e-08, reducing alpha to 2.630082e-05.
ElecMinimize: 	Step failed to reduce F after 3 attempts. Quitting step.
ElecMinimize: 	Undoing step.
	Linear fluid (dielectric constant: 64) occupying 0.782103 of unit cell:	Completed after 0 iterations at t[s]:    399.51
ElecMinimize: 	Step failed: resetting search direction.
	FillingsUpdate:  mu: -0.026836533  nElectrons: 1104.000000
	SubspaceRotationAdjust: set factor to 0.122
ElecMinimize: Iter:  15  F: -7017.557896276309293  |grad|_K:  1.096e-07  alpha:  2.630e-05
	Linear fluid (dielectric constant: 64) occupying 0.782103 of unit cell:	Completed after 2 iterations at t[s]:    407.21
	Linear fluid (dielectric constant: 64) occupying 0.782103 of unit cell:	Completed after 0 iterations at t[s]:    410.05
ElecMinimize: 	Step increased F by 1.066701e-07, reducing alpha to 2.870347e-03.
	Linear fluid (dielectric constant: 64) occupying 0.782103 of unit cell:	Completed after 0 iterations at t[s]:    416.71
ElecMinimize: 	Step increased F by 1.078597e-07, reducing alpha to 2.870347e-04.
	Linear fluid (dielectric constant: 64) occupying 0.782103 of unit cell:	Completed after 0 iterations at t[s]:    423.38
ElecMinimize: 	Step increased F by 1.085346e-07, reducing alpha to 2.870347e-05.
ElecMinimize: 	Step failed to reduce F after 3 attempts. Quitting step.
ElecMinimize: 	Undoing step.
	Linear fluid (dielectric constant: 64) occupying 0.782103 of unit cell:	Completed after 0 iterations at t[s]:    430.03
ElecMinimize: 	Step failed along negative gradient direction.
ElecMinimize: Probably at roundoff error limit. (Stopping)
Setting wave functions to eigenvectors of Hamiltonian

-------- Electronic minimization -----------
	Linear fluid (dielectric constant: 64) occupying 0.782103 of unit cell:	Completed after 21 iterations at t[s]:    438.67
	FillingsUpdate:  mu: -0.026835650  nElectrons: 1104.000000
ElecMinimize: Iter:   0  F: -7017.557884927084160  |grad|_K:  8.760e-07  alpha:  1.000e+00
	Linear fluid (dielectric constant: 64) occupying 0.782102 of unit cell:	Completed after 17 iterations at t[s]:    449.94
	Linear fluid (dielectric constant: 64) occupying 0.782103 of unit cell:	Completed after 16 iterations at t[s]:    453.04
	FillingsUpdate:  mu: -0.026834250  nElectrons: 1104.000000
	SubspaceRotationAdjust: set factor to 0.254
ElecMinimize: Iter:   1  F: -7017.557896805152268  |grad|_K:  2.823e-07  alpha:  1.190e-01  linmin:  1.212e-04  t[s]:    457.31
	Linear fluid (dielectric constant: 64) occupying 0.782103 of unit cell:	Completed after 3 iterations at t[s]:    460.92
	Linear fluid (dielectric constant: 64) occupying 0.782103 of unit cell:	Completed after 0 iterations at t[s]:    463.77
	FillingsUpdate:  mu: -0.026836485  nElectrons: 1104.000000
	SubspaceRotationAdjust: set factor to 0.299
ElecMinimize: Iter:   2  F: -7017.557898101204955  |grad|_K:  2.332e-07  alpha:  1.251e-01  linmin: -3.036e-03  t[s]:    467.94
	Linear fluid (dielectric constant: 64) occupying 0.782103 of unit cell:	Completed after 3 iterations at t[s]:    471.55
	Linear fluid (dielectric constant: 64) occupying 0.782103 of unit cell:	Completed after 0 iterations at t[s]:    474.41
	FillingsUpdate:  mu: -0.026836416  nElectrons: 1104.000000
	SubspaceRotationAdjust: set factor to 0.28
ElecMinimize: Iter:   3  F: -7017.557898897644918  |grad|_K:  1.234e-07  alpha:  1.060e-01  linmin: -9.226e-04  t[s]:    478.57
	Linear fluid (dielectric constant: 64) occupying 0.782103 of unit cell:	Completed after 1 iterations at t[s]:    482.24
	Linear fluid (dielectric constant: 64) occupying 0.782103 of unit cell:	Completed after 0 iterations at t[s]:    485.06
	FillingsUpdate:  mu: -0.026836961  nElectrons: 1104.000000
	SubspaceRotationAdjust: set factor to 0.335
ElecMinimize: Iter:   4  F: -7017.557898938649487  |grad|_K:  7.278e-08  alpha:  5.273e-02  linmin: -2.451e-03  t[s]:    489.24
	Linear fluid (dielectric constant: 64) occupying 0.782103 of unit cell:	Completed after 0 iterations at t[s]:    492.82
	Linear fluid (dielectric constant: 64) occupying 0.782103 of unit cell:	Completed after 0 iterations at t[s]:    495.63
	FillingsUpdate:  mu: -0.026836941  nElectrons: 1104.000000
	SubspaceRotationAdjust: set factor to 0.4
ElecMinimize: Iter:   5  F: -7017.557898961991668  |grad|_K:  6.137e-08  alpha:  4.515e-02  linmin: -2.017e-02  t[s]:    499.79
	Linear fluid (dielectric constant: 64) occupying 0.782103 of unit cell:	Completed after 0 iterations at t[s]:    503.34
ElecMinimize: 	Predicted alpha/alphaT>3.000000, increasing alphaT to 1.354406e-01.
	Linear fluid (dielectric constant: 64) occupying 0.782103 of unit cell:	Completed after 1 iterations at t[s]:    506.19
	Linear fluid (dielectric constant: 64) occupying 0.782103 of unit cell:	Completed after 0 iterations at t[s]:    509.01
	FillingsUpdate:  mu: -0.026835934  nElectrons: 1104.000000
	SubspaceRotationAdjust: set factor to 0.386
ElecMinimize: Iter:   6  F: -7017.557899004248611  |grad|_K:  8.060e-08  alpha:  7.271e-02  linmin:  1.654e-03  t[s]:    513.17
	Linear fluid (dielectric constant: 64) occupying 0.782103 of unit cell:	Completed after 0 iterations at t[s]:    516.72
	Linear fluid (dielectric constant: 64) occupying 0.782103 of unit cell:	Completed after 0 iterations at t[s]:    519.53
	FillingsUpdate:  mu: -0.026835964  nElectrons: 1104.000000
	SubspaceRotationAdjust: set factor to 0.462
ElecMinimize: Iter:   7  F: -7017.557899065064703  |grad|_K:  8.098e-08  alpha:  8.918e-02  linmin: -1.293e-06  t[s]:    523.69
	Linear fluid (dielectric constant: 64) occupying 0.782103 of unit cell:	Completed after 3 iterations at t[s]:    527.30
	Linear fluid (dielectric constant: 64) occupying 0.782103 of unit cell:	Completed after 0 iterations at t[s]:    530.16
ElecMinimize: 	Step increased F by 1.233875e-07, reducing alpha to 1.432045e-03.
	Linear fluid (dielectric constant: 64) occupying 0.782103 of unit cell:	Completed after 0 iterations at t[s]:    536.82
ElecMinimize: 	Step increased F by 1.450717e-07, reducing alpha to 1.432045e-04.
	Linear fluid (dielectric constant: 64) occupying 0.782103 of unit cell:	Completed after 0 iterations at t[s]:    543.52
ElecMinimize: 	Step increased F by 1.434264e-07, reducing alpha to 1.432045e-05.
ElecMinimize: 	Step failed to reduce F after 3 attempts. Quitting step.
ElecMinimize: 	Undoing step.
	Linear fluid (dielectric constant: 64) occupying 0.782103 of unit cell:	Completed after 0 iterations at t[s]:    550.18
ElecMinimize: 	Step failed: resetting search direction.
	FillingsUpdate:  mu: -0.026834985  nElectrons: 1104.000000
	SubspaceRotationAdjust: set factor to 0.406
ElecMinimize: Iter:   8  F: -7017.557898921648302  |grad|_K:  1.468e-07  alpha:  1.432e-05
	Linear fluid (dielectric constant: 64) occupying 0.782103 of unit cell:	Completed after 3 iterations at t[s]:    557.90
	Linear fluid (dielectric constant: 64) occupying 0.782103 of unit cell:	Completed after 0 iterations at t[s]:    560.77
	FillingsUpdate:  mu: -0.026835874  nElectrons: 1104.000000
	SubspaceRotationAdjust: set factor to 0.277
ElecMinimize: Iter:   9  F: -7017.557899026955965  |grad|_K:  9.440e-08  alpha:  5.047e-02  linmin:  3.105e-03  t[s]:    564.93
	Linear fluid (dielectric constant: 64) occupying 0.782103 of unit cell:	Completed after 0 iterations at t[s]:    568.49
	Linear fluid (dielectric constant: 64) occupying 0.782103 of unit cell:	Completed after 1 iterations at t[s]:    571.33
ElecMinimize: 	Step increased F by 3.770947e-08, reducing alpha to 1.110116e-02.
	Linear fluid (dielectric constant: 64) occupying 0.782103 of unit cell:	Completed after 0 iterations at t[s]:    577.99
	FillingsUpdate:  mu: -0.026836187  nElectrons: 1104.000000
	SubspaceRotationAdjust: set factor to 0.356
ElecMinimize: Iter:  10  F: -7017.557899044351871  |grad|_K:  4.455e-08  alpha:  1.110e-02  linmin: -7.828e-03  t[s]:    582.17
	Linear fluid (dielectric constant: 64) occupying 0.782103 of unit cell:	Completed after 0 iterations at t[s]:    585.71
ElecMinimize: 	Predicted alpha/alphaT>3.000000, increasing alphaT to 3.330349e-02.
	Linear fluid (dielectric constant: 64) occupying 0.782103 of unit cell:	Completed after 0 iterations at t[s]:    588.52
ElecMinimize: 	Predicted alpha/alphaT>3.000000, increasing alphaT to 9.991046e-02.
	Linear fluid (dielectric constant: 64) occupying 0.782103 of unit cell:	Completed after 0 iterations at t[s]:    591.33
ElecMinimize: 	Predicted alpha/alphaT>3.000000, increasing alphaT to 2.997314e-01.
	Linear fluid (dielectric constant: 64) occupying 0.782103 of unit cell:	Completed after 1 iterations at t[s]:    594.16
ElecMinimize: 	Step increased F by 1.429635e-08, reducing alpha to 3.506053e-02.
	Linear fluid (dielectric constant: 64) occupying 0.782103 of unit cell:	Completed after 0 iterations at t[s]:    600.84
	FillingsUpdate:  mu: -0.026836331  nElectrons: 1104.000000
	SubspaceRotationAdjust: set factor to 0.284
ElecMinimize: Iter:  11  F: -7017.557899047023056  |grad|_K:  3.912e-08  alpha:  3.506e-02  linmin: -8.264e-03  t[s]:    604.99
	Linear fluid (dielectric constant: 64) occupying 0.782103 of unit cell:	Completed after 0 iterations at t[s]:    608.56
	Linear fluid (dielectric constant: 64) occupying 0.782103 of unit cell:	Completed after 0 iterations at t[s]:    611.42
ElecMinimize: 	Step increased F by 2.358411e-08, reducing alpha to 1.063144e-03.
	Linear fluid (dielectric constant: 64) occupying 0.782103 of unit cell:	Completed after 0 iterations at t[s]:    618.08
ElecMinimize: 	Step increased F by 2.834531e-08, reducing alpha to 1.063144e-04.
	Linear fluid (dielectric constant: 64) occupying 0.782103 of unit cell:	Completed after 0 iterations at t[s]:    624.75
ElecMinimize: 	Step increased F by 2.892375e-08, reducing alpha to 1.063144e-05.
ElecMinimize: 	Step failed to reduce F after 3 attempts. Quitting step.
ElecMinimize: 	Undoing step.
	Linear fluid (dielectric constant: 64) occupying 0.782103 of unit cell:	Completed after 0 iterations at t[s]:    631.42
ElecMinimize: 	Step failed: resetting search direction.
	FillingsUpdate:  mu: -0.026836287  nElectrons: 1104.000000
	SubspaceRotationAdjust: set factor to 0.428
ElecMinimize: Iter:  12  F: -7017.557899018086573  |grad|_K:  3.322e-08  alpha:  1.063e-05
	Linear fluid (dielectric constant: 64) occupying 0.782103 of unit cell:	Completed after 0 iterations at t[s]:    639.09
ElecMinimize: 	Predicted alpha/alphaT>3.000000, increasing alphaT to 1.051816e-01.
	Linear fluid (dielectric constant: 64) occupying 0.782103 of unit cell:	Completed after 0 iterations at t[s]:    641.93
ElecMinimize: 	Predicted alpha/alphaT>3.000000, increasing alphaT to 3.155447e-01.
	Linear fluid (dielectric constant: 64) occupying 0.782103 of unit cell:	Completed after 0 iterations at t[s]:    644.74
	Linear fluid (dielectric constant: 64) occupying 0.782103 of unit cell:	Completed after 0 iterations at t[s]:    647.58
	FillingsUpdate:  mu: -0.026836311  nElectrons: 1104.000000
	SubspaceRotationAdjust: set factor to 0.467
ElecMinimize: Iter:  13  F: -7017.557899079647541  |grad|_K:  5.829e-08  alpha:  4.325e-01  linmin:  2.856e-05  t[s]:    651.75
	Linear fluid (dielectric constant: 64) occupying 0.782103 of unit cell:	Completed after 4 iterations at t[s]:    655.39
	Linear fluid (dielectric constant: 64) occupying 0.782103 of unit cell:	Completed after 4 iterations at t[s]:    664.29
ElecMinimize: 	Step increased F by 1.036742e-07, reducing alpha to 2.745680e-03.
	Linear fluid (dielectric constant: 64) occupying 0.782103 of unit cell:	Completed after 0 iterations at t[s]:    675.44
ElecMinimize: 	Step increased F by 4.919002e-08, reducing alpha to 2.745680e-04.
	Linear fluid (dielectric constant: 64) occupying 0.782103 of unit cell:	Completed after 0 iterations at t[s]:    682.09
ElecMinimize: 	Step increased F by 4.378489e-08, reducing alpha to 2.745680e-05.
ElecMinimize: 	Step failed to reduce F after 3 attempts. Quitting step.
ElecMinimize: 	Undoing step.
	Linear fluid (dielectric constant: 64) occupying 0.782103 of unit cell:	Completed after 0 iterations at t[s]:    688.74
ElecMinimize: 	Step failed: resetting search direction.
	FillingsUpdate:  mu: -0.026837557  nElectrons: 1104.000000
	SubspaceRotationAdjust: set factor to 0.333
ElecMinimize: Iter:  14  F: -7017.557899035841729  |grad|_K:  1.951e-07  alpha:  2.746e-05
	Linear fluid (dielectric constant: 64) occupying 0.782103 of unit cell:	Completed after 11 iterations at t[s]:    696.56
	Linear fluid (dielectric constant: 64) occupying 0.782103 of unit cell:	Completed after 10 iterations at t[s]:    699.58
	FillingsUpdate:  mu: -0.026837051  nElectrons: 1104.000000
	SubspaceRotationAdjust: set factor to 0.137
ElecMinimize: Iter:  15  F: -7017.557899145437659  |grad|_K:  8.484e-08  alpha:  4.467e-02  linmin:  2.096e-02  t[s]:    703.79
	Linear fluid (dielectric constant: 64) occupying 0.782103 of unit cell:	Completed after 0 iterations at t[s]:    707.34
ElecMinimize: 	Predicted alpha/alphaT>3.000000, increasing alphaT to 1.340171e-01.
	Linear fluid (dielectric constant: 64) occupying 0.782103 of unit cell:	Completed after 0 iterations at t[s]:    710.20
	Linear fluid (dielectric constant: 64) occupying 0.782103 of unit cell:	Completed after 0 iterations at t[s]:    713.04
	FillingsUpdate:  mu: -0.026836928  nElectrons: 1104.000000
	SubspaceRotationAdjust: set factor to 0.153
ElecMinimize: Iter:  16  F: -7017.557899264628759  |grad|_K:  5.769e-08  alpha:  1.954e-01  linmin: -1.252e-02  t[s]:    717.22
	Linear fluid (dielectric constant: 64) occupying 0.782103 of unit cell:	Completed after 3 iterations at t[s]:    720.83
	Linear fluid (dielectric constant: 64) occupying 0.782103 of unit cell:	Completed after 0 iterations at t[s]:    723.71
ElecMinimize: 	Step increased F by 7.700328e-08, reducing alpha to 3.822865e-03.
	Linear fluid (dielectric constant: 64) occupying 0.782103 of unit cell:	Completed after 1 iterations at t[s]:    730.40
ElecMinimize: 	Step increased F by 1.851758e-07, reducing alpha to 3.822865e-04.
	Linear fluid (dielectric constant: 64) occupying 0.782103 of unit cell:	Completed after 0 iterations at t[s]:    737.09
ElecMinimize: 	Step increased F by 1.831695e-07, reducing alpha to 3.822865e-05.
ElecMinimize: 	Step failed to reduce F after 3 attempts. Quitting step.
ElecMinimize: 	Undoing step.
	Linear fluid (dielectric constant: 64) occupying 0.782103 of unit cell:	Completed after 0 iterations at t[s]:    743.77
ElecMinimize: 	Step failed: resetting search direction.
	FillingsUpdate:  mu: -0.026834137  nElectrons: 1104.000000
	SubspaceRotationAdjust: set factor to 0.119
ElecMinimize: Iter:  17  F: -7017.557899081486539  |grad|_K:  7.503e-08  alpha:  3.823e-05
	Linear fluid (dielectric constant: 64) occupying 0.782103 of unit cell:	Completed after 0 iterations at t[s]:    751.45
	Linear fluid (dielectric constant: 64) occupying 0.782103 of unit cell:	Completed after 2 iterations at t[s]:    754.32
ElecMinimize: 	Step increased F by 3.590694e-07, reducing alpha to 3.259592e-02.
	Linear fluid (dielectric constant: 64) occupying 0.782103 of unit cell:	Completed after 2 iterations at t[s]:    761.04
	FillingsUpdate:  mu: -0.026835808  nElectrons: 1104.000000
	SubspaceRotationAdjust: set factor to 0.0881
ElecMinimize: Iter:  18  F: -7017.557899131348677  |grad|_K:  4.464e-08  alpha:  3.260e-02  linmin:  3.047e-03  t[s]:    765.22
	Linear fluid (dielectric constant: 64) occupying 0.782103 of unit cell:	Completed after 0 iterations at t[s]:    768.80
	Linear fluid (dielectric constant: 64) occupying 0.782103 of unit cell:	Completed after 0 iterations at t[s]:    771.65
ElecMinimize: 	Step increased F by 2.312481e-08, reducing alpha to 8.313502e-04.
	Linear fluid (dielectric constant: 64) occupying 0.782103 of unit cell:	Completed after 0 iterations at t[s]:    778.29
ElecMinimize: 	Step increased F by 2.629622e-08, reducing alpha to 8.313502e-05.
	Linear fluid (dielectric constant: 64) occupying 0.782103 of unit cell:	Completed after 0 iterations at t[s]:    784.96
ElecMinimize: 	Step increased F by 2.664092e-08, reducing alpha to 8.313502e-06.
ElecMinimize: 	Step failed to reduce F after 3 attempts. Quitting step.
ElecMinimize: 	Undoing step.
	Linear fluid (dielectric constant: 64) occupying 0.782103 of unit cell:	Completed after 0 iterations at t[s]:    791.59
ElecMinimize: 	Step failed: resetting search direction.
	FillingsUpdate:  mu: -0.026835532  nElectrons: 1104.000000
	SubspaceRotationAdjust: set factor to 0.105
ElecMinimize: Iter:  19  F: -7017.557899104725948  |grad|_K:  4.150e-08  alpha:  8.314e-06
	Linear fluid (dielectric constant: 64) occupying 0.782103 of unit cell:	Completed after 0 iterations at t[s]:    799.25
ElecMinimize: 	Predicted alpha/alphaT>3.000000, increasing alphaT to 9.778776e-02.
	Linear fluid (dielectric constant: 64) occupying 0.782103 of unit cell:	Completed after 0 iterations at t[s]:    802.09
	Linear fluid (dielectric constant: 64) occupying 0.782103 of unit cell:	Completed after 0 iterations at t[s]:    804.92
	FillingsUpdate:  mu: -0.026835525  nElectrons: 1104.000000
	SubspaceRotationAdjust: set factor to 0.112
ElecMinimize: Iter:  20  F: -7017.557899168842596  |grad|_K:  6.020e-08  alpha:  2.875e-01  linmin: -1.500e-04  t[s]:    809.10
	Linear fluid (dielectric constant: 64) occupying 0.782103 of unit cell:	Completed after 3 iterations at t[s]:    812.72
	Linear fluid (dielectric constant: 64) occupying 0.782103 of unit cell:	Completed after 2 iterations at t[s]:    815.67
ElecMinimize: 	Step increased F by 2.173119e-07, reducing alpha to 2.310767e-03.
	Linear fluid (dielectric constant: 64) occupying 0.782103 of unit cell:	Completed after 0 iterations at t[s]:    822.35
ElecMinimize: 	Step increased F by 1.696708e-07, reducing alpha to 2.310767e-04.
	Linear fluid (dielectric constant: 64) occupying 0.782103 of unit cell:	Completed after 0 iterations at t[s]:    828.99
ElecMinimize: 	Step increased F by 1.649887e-07, reducing alpha to 2.310767e-05.
ElecMinimize: 	Step failed to reduce F after 3 attempts. Quitting step.
ElecMinimize: 	Undoing step.
	Linear fluid (dielectric constant: 64) occupying 0.782103 of unit cell:	Completed after 0 iterations at t[s]:    835.67
ElecMinimize: 	Step failed: resetting search direction.
	FillingsUpdate:  mu: -0.026834051  nElectrons: 1104.000000
	SubspaceRotationAdjust: set factor to 0.107
ElecMinimize: Iter:  21  F: -7017.557899003913008  |grad|_K:  1.486e-07  alpha:  2.311e-05
	Linear fluid (dielectric constant: 64) occupying 0.782103 of unit cell:	Completed after 4 iterations at t[s]:    843.41
	Linear fluid (dielectric constant: 64) occupying 0.782103 of unit cell:	Completed after 2 iterations at t[s]:    846.34
	FillingsUpdate:  mu: -0.026834856  nElectrons: 1104.000000
	SubspaceRotationAdjust: set factor to 0.0718
ElecMinimize: Iter:  22  F: -7017.557899205913600  |grad|_K:  7.325e-08  alpha:  8.048e-02  linmin:  2.253e-02  t[s]:    850.56
	Linear fluid (dielectric constant: 64) occupying 0.782103 of unit cell:	Completed after 0 iterations at t[s]:    854.11
ElecMinimize: 	Predicted alpha/alphaT>3.000000, increasing alphaT to 2.414334e-01.
	Linear fluid (dielectric constant: 64) occupying 0.782103 of unit cell:	Completed after 2 iterations at t[s]:    856.98
	Linear fluid (dielectric constant: 64) occupying 0.782103 of unit cell:	Completed after 0 iterations at t[s]:    859.83
ElecMinimize: 	Step increased F by 8.314055e-08, reducing alpha to 7.441288e-03.
	Linear fluid (dielectric constant: 64) occupying 0.782103 of unit cell:	Completed after 0 iterations at t[s]:    871.87
ElecMinimize: 	Step increased F by 8.183451e-08, reducing alpha to 7.441288e-04.
	Linear fluid (dielectric constant: 64) occupying 0.782103 of unit cell:	Completed after 0 iterations at t[s]:    884.22
ElecMinimize: 	Step increased F by 8.207462e-08, reducing alpha to 7.441288e-05.
ElecMinimize: 	Step failed to reduce F after 3 attempts. Quitting step.
ElecMinimize: 	Undoing step.
	Linear fluid (dielectric constant: 64) occupying 0.782103 of unit cell:	Completed after 0 iterations at t[s]:    895.28
ElecMinimize: 	Step failed: resetting search direction.
	FillingsUpdate:  mu: -0.026834217  nElectrons: 1104.000000
	SubspaceRotationAdjust: set factor to 0.073
ElecMinimize: Iter:  23  F: -7017.557899123850802  |grad|_K:  7.929e-08  alpha:  7.441e-05
	Linear fluid (dielectric constant: 64) occupying 0.782103 of unit cell:	Completed after 1 iterations at t[s]:    902.97
	Linear fluid (dielectric constant: 64) occupying 0.782103 of unit cell:	Completed after 0 iterations at t[s]:    905.83
ElecMinimize: 	Step increased F by 1.836270e-08, reducing alpha to 2.968598e-03.
	Linear fluid (dielectric constant: 64) occupying 0.782103 of unit cell:	Completed after 0 iterations at t[s]:    912.49
ElecMinimize: 	Step increased F by 2.037632e-08, reducing alpha to 2.968598e-04.
	Linear fluid (dielectric constant: 64) occupying 0.782103 of unit cell:	Completed after 0 iterations at t[s]:    919.13
ElecMinimize: 	Step increased F by 2.117122e-08, reducing alpha to 2.968598e-05.
ElecMinimize: 	Step failed to reduce F after 3 attempts. Quitting step.
ElecMinimize: 	Undoing step.
	Linear fluid (dielectric constant: 64) occupying 0.782103 of unit cell:	Completed after 0 iterations at t[s]:    925.81
ElecMinimize: 	Step failed along negative gradient direction.
ElecMinimize: Probably at roundoff error limit. (Stopping)
Setting wave functions to eigenvectors of Hamiltonian

# Ionic positions in cartesian coordinates:
ion Ni  32.205931395299984  -0.235970585100000   0.378248356800000 0
ion Ni   5.388300532800000  -0.235970585100000   5.741774529299998 0
ion Ni  32.205931395299984  -5.599496757599998   5.741774529299998 0
ion Ni   5.388300532800000  -5.599496757599998   0.378248356800000 0
ion Ni  32.205931395299984 -10.963022930099999   0.378248356800000 0
ion Ni  32.205931395299984 -21.690075275099989   0.378248356800000 0
ion Ni   5.388300532800000 -21.690075275099989   5.741774529299998 0
ion Ni   5.388300532800000 -10.963022930099999   5.741774529299998 0
ion Ni  32.205931395299984 -16.326549102599994   5.741774529299998 0
ion Ni  32.205931395299984 -27.053601447599998   5.741774529299998 0
ion Ni   5.388300532800000 -27.053601447599998   0.378248356800000 0
ion Ni   5.388300532800000 -16.326549102599994   0.378248356800000 0
ion Ni  10.751826705299996  -0.235970585100000   0.378248356800000 0
ion Ni  21.478879050299994  -0.235970585100000   0.378248356800000 0
ion Ni  21.478879050299994  -5.599496757599998   5.741774529299998 0
ion Ni  10.751826705299996  -5.599496757599998   5.741774529299998 0
ion Ni  16.115352877799992  -5.599496757599998   0.378248356800000 0
ion Ni  26.842405222799997  -5.599496757599998   0.378248356800000 0
ion Ni  26.842405222799997  -0.235970585100000   5.741774529299998 0
ion Ni  16.115352877799992  -0.235970585100000   5.741774529299998 0
ion Ni  10.751826705299996 -10.963022930099999   0.378248356800000 0
ion Ni  21.478879050299994 -21.690075275099989   0.378248356800000 0
ion Ni  26.842405222799997 -21.690075275099989   5.741774529299998 0
ion Ni  16.115352877799992 -10.963022930099999   5.741774529299998 0
ion Ni  21.478879050299994 -16.326549102599994   5.741774529299998 0
ion Ni  10.751826705299996 -27.053601447599998   5.741774529299998 0
ion Ni  16.115352877799992 -27.053601447599998   0.378248356800000 0
ion Ni  26.842405222799997 -16.326549102599994   0.378248356800000 0
ion Ni  10.751826705299996 -21.690075275099989   0.378248356800000 0
ion Ni  21.478879050299994 -10.963022930099999   0.378248356800000 0
ion Ni  26.842405222799997 -10.963022930099999   5.741774529299998 0
ion Ni  16.115352877799992 -21.690075275099989   5.741774529299998 0
ion Ni  21.478879050299994 -27.053601447599998   5.741774529299998 0
ion Ni  10.751826705299996 -16.326549102599994   5.741774529299998 0
ion Ni  16.115352877799992 -16.326549102599994   0.378248356800000 0
ion Ni  26.842405222799997 -27.053601447599998   0.378248356800000 0
ion S   4.257013668300000  -4.468209893099999   6.873042496499997 0
ion S  27.973692087299998 -28.184888312099993   4.610506562099999 0
ion S   1.156061224800000 -28.184888312099993   1.509516324000000 0
ion S   9.620539840799996  -4.468209893099999   9.974032734599996 0
ion S  27.973692087299998  -9.831736065599996   9.974032734599996 0
ion S   4.257013668300000  -1.367257449600000   1.509516324000000 0
ion S   9.620539840799996  -1.367257449600000   4.610506562099999 0
ion S   1.156061224800000  -9.831736065599996   6.873042496499997 0
ion S   4.257013668300000 -15.195262238099994   6.873042496499997 0
ion S  27.973692087299998 -17.457835967099999   4.610506562099999 0
ion S   1.156061224800000 -17.457835967099999   1.509516324000000 0
ion S   9.620539840799996 -15.195262238099994   9.974032734599996 0
ion S  27.973692087299998 -20.558788410599991   9.974032734599996 0
ion S   4.257013668300000 -22.821362139599991   1.509516324000000 0
ion S   9.620539840799996 -22.821362139599991   4.610506562099999 0
ion S   1.156061224800000 -20.558788410599991   6.873042496499997 0
ion S  14.984066013300000  -4.468228790400000   6.873061393799998 0
ion S  17.246639742299990 -28.184869414799991   4.610487664799998 0
ion S  17.246639742299990  -9.831754962899996   9.974013837299996 0
ion S  14.984066013300000  -1.367238552300000   1.509535221300000 0
ion S  20.347592185800000  -1.367238552300000   4.610487664799998 0
ion S  22.610165914799992  -9.831754962899996   6.873061393799998 0
ion S  22.610165914799992 -28.184869414799991   1.509535221300000 0
ion S  20.347592185800000  -4.468228790400000   9.974013837299996 0
ion S   4.257013668300000 -25.922314583100000   6.873042496499997 0
ion S  27.973692087299998  -6.730783622100000   4.610506562099999 0
ion S   1.156061224800000  -6.730783622100000   1.509516324000000 0
ion S   9.620539840799996 -25.922314583100000   9.974032734599996 0
ion S  27.973692087299998 -31.285840755599999   9.974032734599996 0
ion S   4.257013668300000 -12.094309794599999   1.509516324000000 0
ion S   9.620539840799996 -12.094309794599999   4.610506562099999 0
ion S   1.156061224800000 -31.285840755599999   6.873042496499997 0
ion S  25.711118358299998  -4.468228790400000   6.873061393799998 0
ion S   6.519587397299998 -28.184869414799991   4.610487664799998 0
ion S   6.519587397299998  -9.831754962899996   9.974013837299996 0
ion S  25.711118358299998  -1.367238552300000   1.509535221300000 0
ion S  31.074644530799993  -1.367238552300000   4.610487664799998 0
ion S  11.883113569799995  -9.831754962899996   6.873061393799998 0
ion S  11.883113569799995 -28.184869414799991   1.509535221300000 0
ion S  31.074644530799993  -4.468228790400000   9.974013837299996 0
ion S  14.984066013300000 -15.195262238099994   6.873042496499997 0
ion S  17.246639742299990 -17.457835967099999   4.610506562099999 0
ion S  22.610165914799992 -17.457835967099999   1.509516324000000 0
ion S  20.347592185800000 -15.195262238099994   9.974032734599996 0
ion S  17.246639742299990 -20.558788410599991   9.974032734599996 0
ion S  14.984066013300000 -22.821362139599991   1.509516324000000 0
ion S  20.347592185800000 -22.821362139599991   4.610506562099999 0
ion S  22.610165914799992 -20.558788410599991   6.873042496499997 0
ion S  14.984066013300000 -25.922314583100000   6.873042496499997 0
ion S  17.246639742299990  -6.730783622100000   4.610506562099999 0
ion S  22.610165914799992  -6.730783622100000   1.509516324000000 0
ion S  20.347592185800000 -25.922314583100000   9.974032734599996 0
ion S  17.246639742299990 -31.285840755599999   9.974032734599996 0
ion S  14.984066013300000 -12.094309794599999   1.509516324000000 0
ion S  20.347592185800000 -12.094309794599999   4.610506562099999 0
ion S  22.610165914799992 -31.285840755599999   6.873042496499997 0
ion S  25.711118358299998 -15.195262238099994   6.873042496499997 0
ion S   6.519587397299998 -17.457835967099999   4.610506562099999 0
[...]
	FillingsUpdate:  mu: -0.026811708  nElectrons: 1104.000000
	SubspaceRotationAdjust: set factor to 0.0766
ElecMinimize: Iter:  19  F: -7017.555787640711060  |grad|_K:  2.638e-08  alpha:  2.801e-01  linmin: -1.174e-04  t[s]:   3268.47
	Linear fluid (dielectric constant: 64) occupying 0.782121 of unit cell:	Completed after 0 iterations at t[s]:   3272.21
	Linear fluid (dielectric constant: 64) occupying 0.782121 of unit cell:	Completed after 0 iterations at t[s]:   3275.12
ElecMinimize: 	Step increased F by 1.824446e-08, reducing alpha to 1.173206e-02.
	Linear fluid (dielectric constant: 64) occupying 0.782120 of unit cell:	Completed after 0 iterations at t[s]:   3282.03
ElecMinimize: 	Step increased F by 2.650813e-08, reducing alpha to 1.173206e-03.
	Linear fluid (dielectric constant: 64) occupying 0.782120 of unit cell:	Completed after 0 iterations at t[s]:   3288.90
ElecMinimize: 	Step increased F by 2.751494e-08, reducing alpha to 1.173206e-04.
ElecMinimize: 	Step failed to reduce F after 3 attempts. Quitting step.
ElecMinimize: 	Undoing step.
	Linear fluid (dielectric constant: 64) occupying 0.782120 of unit cell:	Completed after 0 iterations at t[s]:   3295.75
ElecMinimize: 	Step failed: resetting search direction.
	FillingsUpdate:  mu: -0.026812177  nElectrons: 1104.000000
	SubspaceRotationAdjust: set factor to 0.0795
ElecMinimize: Iter:  20  F: -7017.555787613177927  |grad|_K:  2.619e-08  alpha:  1.173e-04
	Linear fluid (dielectric constant: 64) occupying 0.782120 of unit cell:	Completed after 0 iterations at t[s]:   3309.22
	Linear fluid (dielectric constant: 64) occupying 0.782120 of unit cell:	Completed after 0 iterations at t[s]:   3312.15
	FillingsUpdate:  mu: -0.026812190  nElectrons: 1104.000000
	SubspaceRotationAdjust: set factor to 0.0874
ElecMinimize: Iter:  21  F: -7017.555787620637602  |grad|_K:  1.417e-08  alpha:  8.399e-02  linmin:  2.308e-05  t[s]:   3316.52
	Linear fluid (dielectric constant: 64) occupying 0.782120 of unit cell:	Completed after 0 iterations at t[s]:   3320.19
	Linear fluid (dielectric constant: 64) occupying 0.782120 of unit cell:	Completed after 0 iterations at t[s]:   3323.13
	FillingsUpdate:  mu: -0.026812216  nElectrons: 1104.000000
	SubspaceRotationAdjust: set factor to 0.0913
ElecMinimize: Iter:  22  F: -7017.555787626751226  |grad|_K:  2.158e-08  alpha:  2.308e-01  linmin: -1.306e-04  t[s]:   3327.46
ElecMinimize: Converged (|Delta F|<1.000000e-08 for 2 iters).
Setting wave functions to eigenvectors of Hamiltonian

# Ionic positions in cartesian coordinates:
ion Ni  32.181130469222218  -0.000028463333331   0.611327655000000 0
ion Ni   5.363545148055554  -0.000028463333331   5.974853827499987 0
ion Ni  32.181130469222218  -5.363543250499998   5.974853827499987 0
ion Ni   5.363545148055554  -5.363543250499998   0.611327655000000 0
ion Ni  32.181130469222218 -10.727058037666666   0.611327655000000 0
ion Ni  32.181130469222218 -21.454087611999999   0.611327655000000 0
ion Ni   5.363545148055554 -21.454087611999999   5.974853827499987 0
ion Ni   5.363545148055554 -10.727058037666666   5.974853827499987 0
ion Ni  32.181130469222218 -16.090572824833334   5.974853827499987 0
ion Ni  32.181130469222218 -26.817602399166631   5.974853827499987 0
ion Ni   5.363545148055554 -26.817602399166631   0.611327655000000 0
ion Ni   5.363545148055554 -16.090572824833334   0.611327655000000 0
ion Ni  10.727071320555535  -0.000028463333331   0.611327655000000 0
ion Ni  21.454100894888885  -0.000028463333331   0.611327655000000 0
ion Ni  21.454100894888885  -5.363543250499998   5.974853827499987 0
ion Ni  10.727071320555535  -5.363543250499998   5.974853827499987 0
ion Ni  16.090574722388887  -5.363543250499998   0.611327655000000 0
ion Ni  26.817604296722187  -5.363543250499998   0.611327655000000 0
ion Ni  26.817604296722187  -0.000028463333331   5.974853827499987 0
ion Ni  16.090574722388887  -0.000028463333331   5.974853827499987 0
ion Ni  10.727071320555535 -10.727058037666666   0.611327655000000 0
ion Ni  21.454100894888885 -21.454087611999999   0.611327655000000 0
ion Ni  26.817604296722187 -21.454087611999999   5.974853827499987 0
ion Ni  16.090574722388887 -10.727058037666666   5.974853827499987 0
ion Ni  21.454100894888885 -16.090572824833334   5.974853827499987 0
ion Ni  10.727071320555535 -26.817602399166631   5.974853827499987 0
ion Ni  16.090574722388887 -26.817602399166631   0.611327655000000 0
ion Ni  26.817604296722187 -16.090572824833334   0.611327655000000 0
ion Ni  10.727071320555535 -21.454087611999999   0.611327655000000 0
ion Ni  21.454100894888885 -10.727058037666666   0.611327655000000 0
ion Ni  26.817604296722187 -10.727058037666666   5.974853827499987 0
ion Ni  16.090574722388887 -21.454087611999999   5.974853827499987 0
ion Ni  21.454100894888885 -26.817602399166631   5.974853827499987 0
ion Ni  10.727071320555535 -16.090572824833334   5.974853827499987 0
ion Ni  16.090574722388887 -16.090572824833334   0.611327655000000 0
ion Ni  26.817604296722187 -26.817602399166631   0.611327655000000 0
ion S   4.232269668888876  -4.232271970733331   7.106125994099993 0
ion S  27.948891161222186 -27.948885064266634   4.843581660899996 0
ion S   1.131317225388885 -27.948885064266634   1.742599821599998 0
ion S   9.595784456055535  -4.232271970733331  10.207107833399990 0
ion S  27.948891161222186  -9.595786757899997  10.207107833399990 0
ion S   4.232269668888876  -1.131311128433331   1.742599821599998 0
ion S   9.595784456055535  -1.131311128433331   4.843581660899996 0
ion S   1.131317225388885  -9.595786757899997   7.106125994099993 0
ion S   4.232269668888876 -14.959301545066648   7.106125994099993 0
ion S  27.948891161222186 -17.221855489933297   4.843581660899996 0
ion S   1.131317225388885 -17.221855489933297   1.742599821599998 0
ion S   9.595784456055535 -14.959301545066648  10.207107833399990 0
ion S  27.948891161222186 -20.322816332233330  10.207107833399990 0
ion S   4.232269668888876 -22.585370277100001   1.742599821599998 0
ion S   9.595784456055535 -22.585370277100001   4.843581660899996 0
ion S   1.131317225388885 -20.322816332233330   7.106125994099993 0
ion S  14.959299243222203  -4.232271970733330   7.106125994099993 0
ion S  17.221861586888888 -27.948885064266634   4.843581660899996 0
ion S  17.221861586888888  -9.595786757899997  10.207107833399990 0
ion S  14.959299243222203  -1.131311128433331   1.742599821599998 0
ion S  20.322814030388887  -1.131311128433331   4.843581660899996 0
ion S  22.585376374055553  -9.595786757899997   7.106125994099993 0
ion S  22.585376374055553 -27.948885064266634   1.742599821599998 0
ion S  20.322814030388887  -4.232271970733330  10.207107833399990 0
ion S   4.232269668888876 -25.686331119399966   7.106125994099993 0
ion S  27.948891161222186  -6.494825915599989   4.843581660899996 0
ion S   1.131317225388885  -6.494825915599989   1.742599821599998 0
ion S   9.595784456055535 -25.686331119399966  10.207107833399990 0
ion S  27.948891161222186 -31.049845906566667  10.207107833399990 0
ion S   4.232269668888876 -11.858340702766649   1.742599821599998 0
ion S   9.595784456055535 -11.858340702766649   4.843581660899996 0
ion S   1.131317225388885 -31.049845906566667   7.106125994099993 0
ion S  25.686328817555520  -4.232271970733330   7.106125994099993 0
ion S   6.494832012555547 -27.948885064266634   4.843581660899996 0
ion S   6.494832012555547  -9.595786757899997  10.207107833399990 0
ion S  25.686328817555520  -1.131311128433331   1.742599821599998 0
ion S  31.049843604722220  -1.131311128433331   4.843581660899996 0
ion S  11.858346799722204  -9.595786757899997   7.106125994099993 0
ion S  11.858346799722204 -27.948885064266634   1.742599821599998 0
ion S  31.049843604722220  -4.232271970733330  10.207107833399990 0
ion S  14.959299243222203 -14.959301545066648   7.106125994099993 0
ion S  17.221861586888888 -17.221855489933297   4.843581660899996 0
ion S  22.585376374055553 -17.221855489933297   1.742599821599998 0
ion S  20.322814030388887 -14.959301545066648  10.207107833399990 0
ion S  17.221861586888888 -20.322816332233330  10.207107833399990 0
ion S  14.959299243222203 -22.585370277100001   1.742599821599998 0
ion S  20.322814030388887 -22.585370277100001   4.843581660899996 0
ion S  22.585376374055553 -20.322816332233330   7.106125994099993 0
ion S  14.959299243222203 -25.686331119399966   7.106125994099993 0
ion S  17.221861586888888  -6.494825915599989   4.843581660899996 0
ion S  22.585376374055553  -6.494825915599989   1.742599821599998 0
ion S  20.322814030388887 -25.686331119399966  10.207107833399990 0
ion S  17.221861586888888 -31.049845906566667  10.207107833399990 0
ion S  14.959299243222203 -11.858340702766649   1.742599821599998 0
ion S  20.322814030388887 -11.858340702766649   4.843581660899996 0
ion S  22.585376374055553 -31.049845906566667   7.106125994099993 0
ion S  25.686328817555520 -14.959301545066648   7.106125994099993 0
ion S   6.494832012555547 -17.221855489933297   4.843581660899996 0
ion S  11.858346799722204 -17.221855489933297   1.742599821599998 0
ion S  31.049843604722220 -14.959301545066648  10.207107833399990 0
ion S   6.494832012555547 -20.322816332233330  10.207107833399990 0
ion S  25.686328817555520 -22.585370277100001   1.742599821599998 0
ion S  31.049843604722220 -22.585370277100001   4.843581660899996 0
ion S  11.858346799722204 -20.322816332233330   7.106125994099993 0
ion S  25.686328817555520 -25.686331119399966   7.106125994099993 0
ion S   6.494832012555547  -6.494825915599989   4.843581660899996 0
ion S  11.858346799722204  -6.494825915599989   1.742599821599998 0
ion S  31.049843604722220 -25.686331119399966  10.207107833399990 0
ion S   6.494832012555547 -31.049845906566667  10.207107833399990 0
ion S  25.686328817555520 -11.858340702766649   1.742599821599998 0
ion S  31.049843604722220 -11.858340702766649   4.843581660899996 0
ion S  11.858346799722204 -31.049845906566667   7.106125994099993 0
ion S  15.983853140593222 -23.707981794252888  16.173080344593807 1
ion Na   6.364462590324454  -6.574124907462849  18.649780743687867 1
ion Na  32.006459198820963 -10.727106316357867  17.067102703228002 1

# Forces in Cartesian coordinates:
force Ni   0.022829109753095   0.012357477233643   0.039901759220492 0
force Ni  -0.002831153974885  -0.000754334282669   0.005985413340682 0
force Ni   0.002193354404150  -0.001288180065430   0.006016838465842 0
force Ni  -0.022901029611128   0.012186750907114   0.039933377405214 0
force Ni   0.022881166690307   0.012151302078423   0.039905872922874 0
force Ni   0.022899144216694   0.012191532692678   0.039845904686023 0
force Ni  -0.003320809472166  -0.001389871077799   0.006899274688355 0
force Ni  -0.002146817189257  -0.001475107804440   0.006053099727617 0
force Ni   0.002214898025925  -0.001417618203823   0.005846549314747 0
force Ni   0.001078634655856  -0.000649136642368   0.005972242009771 0
force Ni  -0.023477079669040   0.011910280356659   0.040601340151884 0
force Ni  -0.022952923398661   0.012133951944003   0.039810046582394 0
force Ni   0.023007482582136   0.010591557500836   0.040129405569288 0
force Ni   0.023615598967657   0.011462425458061   0.039882465750354 0
force Ni   0.002427659765771  -0.000492115146669   0.006022419869062 0
force Ni   0.002773743588630  -0.001106361514879   0.006017263947663 0
force Ni  -0.023312061795218   0.012524489546869   0.040095246445641 0
force Ni  -0.022990184900180   0.012176013363141   0.039884375318473 0
force Ni  -0.002519423245331  -0.001420078405764   0.005825417691239 0
force Ni   0.005302833761134  -0.007637627071806  -0.000951989739389 0
force Ni   0.022796885925812   0.012130033760988   0.039868547935121 0
force Ni   0.023327332613741   0.013195918478459   0.037464572315349 0
force Ni  -0.000505806525394  -0.001913629963050   0.006085795158097 0
force Ni  -0.002170685286339  -0.000197740525535   0.006891725941222 0
force Ni   0.004695609638464   0.003202774385211   0.002697096618247 0
force Ni  -0.158415788901751  -0.045756346597617  -0.026904235878265 0
force Ni  -0.014159138502348   0.006374116727777   0.037358080674525 0
force Ni  -0.022757167839913   0.012218100824844   0.039740315201030 0
force Ni   0.020491018649683   0.014266322892102   0.037182711733846 0
force Ni   0.022812308122349   0.012103023922915   0.039894140839020 0
force Ni  -0.002325944069261  -0.001219952260540   0.006002010737091 0
force Ni   0.011828581860633   0.121983886915973  -0.142976469020253 0
force Ni   0.007188384278638  -0.009844929558362  -0.002014328114021 0
force Ni   0.000959212871768   0.001642448614655   0.005024500675929 0
force Ni  -0.023194393877728   0.012677137584167   0.037817964989625 0
force Ni  -0.023415386384835   0.011788427554431   0.040153943501031 0
force S  -0.006458989355056   0.004330315316924  -0.005239906772582 0
force S   0.004242159075862  -0.001102474607493  -0.010621321166713 0
force S  -0.002838221930134  -0.007941918507302  -0.023464485557096 0
force S   0.003373983987241  -0.007011667267705  -0.004748627756717 0
force S  -0.003654239672945  -0.006131803651083  -0.005887708979257 0
force S   0.002949357503772  -0.007805677034660  -0.023554135933791 0
force S  -0.004824397912644   0.000079373333693  -0.012418063741026 0
force S   0.006410685561270   0.004607480809288  -0.005236441380282 0
force S  -0.006552487152228   0.004390963267483  -0.005516139071879 0
force S   0.004837286524820  -0.000871786966582  -0.010797318502484 0
force S  -0.002668792867559  -0.007963142682845  -0.023590161895240 0
force S  -0.000420622486236  -0.002770337301548  -0.008622575070322 0
force S  -0.000762978449596  -0.005998503194930  -0.005890169721865 0
force S   0.003051881454563  -0.007810040686850  -0.023604108468107 0
force S  -0.018027623970429  -0.001867667243029  -0.011098675943743 0
force S   0.006039027081939   0.004377491558747  -0.005746034303411 0
force S  -0.005866794949574   0.003763117605287  -0.006128225979667 0
force S   0.253084110274546  -0.246525250411504  -0.268218610530748 0
force S  -0.004046272727542  -0.003393745320163  -0.006326543477669 0
force S   0.002517150579647  -0.009845848953538  -0.023911664053286 0
force S  -0.004080416223981  -0.002684594880697  -0.010266098205523 0
force S   0.006164863091166   0.005401409754554  -0.006211217808328 0
force S  -0.000808952108908  -0.006664761357047  -0.022696372098918 0
force S   0.004806525247760  -0.007947980333042  -0.006169156869898 0
force S  -0.007864493492274   0.002281763079113  -0.007356911156404 0
force S   0.004581358520102  -0.001253106425883  -0.010675561932150 0
force S  -0.002665719739707  -0.007859153083914  -0.023583111714838 0
force S  -0.062966891547705  -0.007250484993335  -0.018025645219820 0
force S  -0.003492838491853  -0.006286360683436  -0.005411064291264 0
force S   0.002667142519241  -0.007860521807886  -0.023541860635073 0
force S  -0.004515850437322  -0.001379294785776  -0.010905312434009 0
force S   0.006332792603925   0.004618312604995  -0.005304677002067 0
force S  -0.006157473274738   0.004547151698085  -0.005170364565282 0
force S  -0.004200184832308  -0.002016070373478  -0.012362670473243 0
force S  -0.004341300624927  -0.005646170178994  -0.005795070589447 0
force S   0.002488793380594  -0.007783082709060  -0.023615835191673 0
force S  -0.004555085883373  -0.001180631753666  -0.010688076268818 0
force S   0.006262675988865   0.004753887751794  -0.006170636926086 0
force S  -0.011594443964684  -0.017578073922915  -0.029517099713678 0
force S   0.003524222725637  -0.006296201233148  -0.005945934266970 0
force S  -0.011008540579694   0.019819526850882  -0.024715668932896 0
force S   0.005314714929911   0.000726659166521  -0.016883354677222 0
force S  -0.002966614343016  -0.008063185661020  -0.023679119851685 0
force S   0.024913805296801   0.027759829878407  -0.014182259771582 0
force S   0.161453329047165   0.205687263885185   0.284355413666592 0
force S   0.017514372811757   0.013123476266676  -0.048408865554854 0
force S  -0.007013144670191  -0.000818197714593  -0.016960581165015 0
force S   0.030584239211972   0.006392581674120  -0.031268209894415 0
force S  -0.308955393466420   0.293007132859860   0.419368214724012 0
force S   0.004394516656697  -0.001075826218365  -0.010878504080392 0
force S  -0.002680122358645  -0.007685011194961  -0.023680083876451 0
force S   0.071955410944907  -0.031733900277688  -0.007369595806397 0
force S   0.030518837234885  -0.059982478462781  -0.011919756384756 0
force S   0.002848432563231  -0.007899031965391  -0.023702021388576 0
force S  -0.004237835457645  -0.000865354883368  -0.010579515422160 0
force S   0.006838292390905   0.003336463098924  -0.006755766703311 0
force S  -0.005818784296773   0.004684911455349  -0.006526568712233 0
force S   0.004145761881290  -0.000917888522317  -0.010998053755861 0
force S  -0.003098999632024  -0.007387378887748  -0.024485690292708 0
force S   0.003786191107747  -0.005994057349252  -0.005561627450742 0
force S  -0.009261372114839  -0.004889261277589  -0.009246307580013 0
force S   0.002589458586618  -0.008091464424151  -0.023838697792739 0
force S  -0.004084181352040  -0.001136080903256  -0.010414969680632 0
force S  -0.011561555224016   0.033369211783081  -0.037819492957176 0
force S  -0.005532117299894   0.003639370640486  -0.007108423490339 0
force S   0.004522439723047  -0.001120733876220  -0.010648675440429 0
force S  -0.002647525412899  -0.007750353728467  -0.023589431018632 0
force S   0.004137394649993  -0.006528454063752  -0.005490805127154 0
force S  -0.006575533772860  -0.008283086604575  -0.006482094194895 0
force S   0.002689953179898  -0.007864062622410  -0.023563389707986 0
force S  -0.004520288364310  -0.001211684810437  -0.010742343471892 0
force S  -0.018328715334274  -0.029602549863871  -0.034219503726935 0
force S   0.000896396853412  -0.001827587495643  -0.000434385077595 1
force Na  -0.000397765588472   0.000011251269837  -0.000492980876644 1
force Na  -0.000143716061305   0.000357826745710  -0.000555335923042 1

# Energy components:
   A_diel =      -35.8803425107133478
   Eewald =    29372.1147116414576885
       EH =    35675.6977547990827588
     Eloc =   -73240.2641831803921377
      Enl =      902.5020918825421177
      Exc =     -956.2998148200098285
 Exc_core =      143.4819616732845304
       KE =     1122.0928870518580425
  MuShift =        0.0000000000096626
-------------------------------------
     Etot =    -7016.5549334628776705
       TS =        1.0008541638739374
-------------------------------------
        F =    -7017.5557876267512256

IonicMinimize: Iter:   3  F: -7017.555787626751226  |grad|_K:  7.594e-04  alpha:  7.320e-01  linmin:  5.079e-04  t[s]:   3331.19
IonicMinimize: Converged (|Delta F|<1.000000e-06 for 2 iters).

#--- Lowdin population analysis ---
# oxidation-state Ni -0.132 -0.438 -0.438 -0.132 -0.130 -0.128 -0.436 -0.438 -0.439 -0.440 -0.128 -0.130 -0.114 -0.110 -0.440 -0.439 -0.130 -0.132 -0.439 -0.468 -0.128 -0.134 -0.436 -0.438 -0.479 -0.453 -0.172 -0.129 -0.143 -0.130 -0.439 -0.340 -0.472 -0.444 -0.130 -0.136
# oxidation-state S +0.228 +0.435 +0.031 -0.600 -0.561 +0.029 +0.438 +0.229 +0.227 +0.433 +0.029 -0.652 -0.617 +0.027 +0.370 +0.228 +0.221 +0.021 -0.603 +0.035 +0.453 +0.230 +0.054 -0.580 +0.233 +0.435 +0.029 -0.751 -0.583 +0.029 +0.436 +0.229 +0.230 +0.426 -0.569 +0.031 +0.435 +0.221 -0.051 -0.565 +0.121 +0.354 +0.026 -0.801 +5.962 -0.096 +0.341 +0.091 +5.928 +0.435 +0.030 -0.955 -0.722 +0.024 +0.436 +0.229 +0.220 +0.430 +0.019 -0.567 -0.628 +0.024 +0.436 +0.011 +0.215 +0.434 +0.030 -0.585 -0.607 +0.029 +0.435 +0.123 +5.987
# oxidation-state Na +0.939 +0.916


Dumping 'Na2S@NiS2_S-PC.fillings' ... done
Dumping 'Na2S@NiS2_S-PC.wfns' ... done
Dumping 'Na2S@NiS2_S-PC.fluidState' ... done
Dumping 'Na2S@NiS2_S-PC.ionpos' ... done
Dumping 'Na2S@NiS2_S-PC.eigenvals' ... done
End date and time: Sat Oct 12 12:25:08 2024  (Duration: 0-0:55:37.77)
Done!
